/*--------------------------------*- C++ -*----------------------------------*\
| =========                 |                                                 |
| \\      /  F ield         | OpenFOAM: The Open Source CFD Toolbox           |
|  \\    /   O peration     | Version:  2.4.0                                 |
|   \\  /    A nd           | Web:      www.OpenFOAM.org                      |
|    \\/     M anipulation  |                                                 |
\*---------------------------------------------------------------------------*/
FoamFile
{
    version     2.0;
    format      ascii;
    class       volScalarField;
    object      pvf;
}
// * * * * * * * * * * * * * * * * * * * * * * * * * * * * * * * * * * * * * //

dimensions      [0 0 0 0 0 0 0];

internalField   nonuniform List<scalar>
25792
(
  0
  0
  0
  0
  0
  0
  0
  0
  0
  0
  0
  0
  0
  0
  0
  0
  0.015068404077324
  0.015068404077324
  0.01035884721634
  0.01035884721634
  0.01191428703295
  0.01191428703295
  0.014364732834938
  0.014364732834938
  0.009908731176649
  0.009908731176649
  0.007065313745424
  0.007065313745424
  0.00988371999866
  0.00988371999866
  0.015457762329717
  0.015457762329717
  0.016629254652183
  0.016629254652183
  0.013702672832264
  0.013702672832264
  0.014732512593498
  0.014732512593498
  0.019587790278289
  0.019587790278289
  0.019209270708834
  0.019209270708834
  0.013958194450747
  0.013958194450747
  0.011335716168955
  0.011335716168955
  0.013782481846353
  0.013782481846353
  0.016039848052003
  0.016039848052003
  0.014083408909798
  0.014083408909798
  0.009287475888006
  0.009287475888006
  0.006939197048696
  0.006939197048696
  0.006027115538603
  0.006027115538603
  0.005015651669154
  0.005015651669154
  0.003910508683103
  0.003910508683103
  0.003798721856455
  0.003798721856455
  0.003312296828692
  0.003312296828692
  0.002171827711949
  0.002171827711949
  0.002003856505394
  0.002003856505394
  0.003810455968961
  0.003810455968961
  0.005505536866329
  0.005505536866329
  0.006464443529126
  0.006464443529126
  0.006217551232277
  0.006217551232277
  0.006223805740713
  0.006223805740713
  0.006679770387767
  0.006679770387767
  0.004401628040011
  0.004401628040011
  0.00168930393542
  0.00168930393542
  0.002475697793874
  0.002475697793874
  0.009626882167668
  0.009626882167668
  0.017293010155741
  0.017293010155741
  0.016566974837465
  0.016566974837465
  0.020760917331922
  0.020760917331922
  0.032136185101884
  0.032136185101884
  0.038536937342769
  0.038536937342769
  0.039877770095208
  0.039877770095208
  0.039297558894578
  0.039297558894578
  0.031393904180873
  0.031393904180873
  0.026848774370325
  0.026848774370325
  0.027288138029264
  0.027288138029264
  0.025529885098538
  0.025529885098538
  0.020097876956426
  0.020097876956426
  0.014090212670463
  0.014090212670463
  0.016661475604296
  0.016661475604296
  0.011229762847136
  0.011229762847136
  0.017000696578632
  0.017000696578632
  0.018709937782108
  0.018709937782108
  0
  0
  0
  0
  0
  0
  0
  0
  0
  0
  0
  0
  0
  0
  0
  0
  0.015068404077324
  0.015068404077324
  0.01035884721634
  0.01035884721634
  0.01191428703295
  0.01191428703295
  0.014364732834938
  0.014364732834938
  0.009908731176649
  0.009908731176649
  0.007065313745424
  0.007065313745424
  0.00988371999866
  0.00988371999866
  0.015457762329717
  0.015457762329717
  0.016629254652183
  0.016629254652183
  0.013702672832264
  0.013702672832264
  0.014732512593498
  0.014732512593498
  0.019587790278289
  0.019587790278289
  0.019209270708834
  0.019209270708834
  0.013958194450747
  0.013958194450747
  0.011335716168955
  0.011335716168955
  0.013782481846353
  0.013782481846353
  0.016039848052003
  0.016039848052003
  0.014083408909798
  0.014083408909798
  0.009287475888006
  0.009287475888006
  0.006939197048696
  0.006939197048696
  0.006027115538603
  0.006027115538603
  0.005015651669154
  0.005015651669154
  0.003910508683103
  0.003910508683103
  0.003798721856455
  0.003798721856455
  0.003312296828692
  0.003312296828692
  0.002171827711949
  0.002171827711949
  0.002003856505394
  0.002003856505394
  0.003810455968961
  0.003810455968961
  0.005505536866329
  0.005505536866329
  0.006464443529126
  0.006464443529126
  0.006217551232277
  0.006217551232277
  0.006223805740713
  0.006223805740713
  0.006679770387767
  0.006679770387767
  0.004401628040011
  0.004401628040011
  0.00168930393542
  0.00168930393542
  0.002475697793874
  0.002475697793874
  0.009626882167668
  0.009626882167668
  0.017293010155741
  0.017293010155741
  0.016566974837465
  0.016566974837465
  0.020760917331922
  0.020760917331922
  0.032136185101884
  0.032136185101884
  0.038536937342769
  0.038536937342769
  0.039877770095208
  0.039877770095208
  0.039297558894578
  0.039297558894578
  0.031393904180873
  0.031393904180873
  0.026848774370325
  0.026848774370325
  0.027288138029264
  0.027288138029264
  0.025529885098538
  0.025529885098538
  0.020097876956426
  0.020097876956426
  0.014090212670463
  0.014090212670463
  0.016661475604296
  0.016661475604296
  0.011229762847136
  0.011229762847136
  0.017000696578632
  0.017000696578632
  0.018709937782108
  0.018709937782108
  0
  0
  0
  0
  0
  0
  0
  0
  0
  0
  0
  0
  0
  0
  0.024802069193877
  0.024802069193877
  0.015192289211474
  0.015192289211474
  0.01234455477643
  0.01234455477643
  0.013312694785428
  0.013312694785428
  0.011581377266761
  0.011581377266761
  0.007778840861921
  0.007778840861921
  0.01062909474625
  0.01062909474625
  0.016248157491772
  0.016248157491772
  0.019796247891025
  0.019796247891025
  0.018825452864028
  0.018825452864028
  0.017990113376845
  0.017990113376845
  0.019882840027033
  0.019882840027033
  0.02214146513237
  0.02214146513237
  0.020076481928461
  0.020076481928461
  0.015162797198241
  0.015162797198241
  0.013577873502587
  0.013577873502587
  0.015383741372383
  0.015383741372383
  0.015140523163664
  0.015140523163664
  0.011416063398836
  0.011416063398836
  0.008812799873517
  0.008812799873517
  0.00769392266638
  0.00769392266638
  0.006066176426798
  0.006066176426798
  0.003200632144643
  0.003200632144643
  0.002465929050452
  0.002465929050452
  0.004145107807407
  0.004145107807407
  0.004177792402579
  0.004177792402579
  0.002785432521878
  0.002785432521878
  0.002868257600368
  0.002868257600368
  0.005143608740437
  0.005143608740437
  0.006239819214549
  0.006239819214549
  0.005018292366514
  0.005018292366514
  0.004732430395679
  0.004732430395679
  0.006319275593517
  0.006319275593517
  0.008013228328847
  0.008013228328847
  0.005102708970666
  0.005102708970666
  0.001466482039209
  0.001466482039209
  0.002379055190679
  0.002379055190679
  0.009053356424784
  0.009053356424784
  0.017043740278255
  0.017043740278255
  0.015556497168222
  0.015556497168222
  0.020492452781226
  0.020492452781226
  0.035844704506191
  0.035844704506191
  0.042527897194967
  0.042527897194967
  0.040499775335753
  0.040499775335753
  0.038049491230104
  0.038049491230104
  0.031454869554225
  0.031454869554225
  0.023783973033409
  0.023783973033409
  0.022025637873272
  0.022025637873272
  0.020153953319417
  0.020153953319417
  0.014136108778668
  0.014136108778668
  0.013556647037566
  0.013556647037566
  0.022049284152279
  0.022049284152279
  0.013181393723929
  0.013181393723929
  0.01994359034084
  0.01994359034084
  0.018916362041269
  1.89E-02
  0
  0
  0
  0
  0
  0
  0
  0
  0
  0
  0
  0
  0
  0
  0.024802069193877
  0.024802069193877
  0.015192289211474
  0.015192289211474
  0.01234455477643
  0.01234455477643
  0.013312694785428
  0.013312694785428
  0.011581377266761
  0.011581377266761
  0.007778840861921
  0.007778840861921
  0.01062909474625
  0.01062909474625
  0.016248157491772
  0.016248157491772
  0.019796247891025
  0.019796247891025
  0.018825452864028
  0.018825452864028
  0.017990113376845
  0.017990113376845
  0.019882840027033
  0.019882840027033
  0.02214146513237
  0.02214146513237
  0.020076481928461
  0.020076481928461
  0.015162797198241
  0.015162797198241
  0.013577873502587
  0.013577873502587
  0.015383741372383
  0.015383741372383
  0.015140523163664
  0.015140523163664
  0.011416063398836
  0.011416063398836
  0.008812799873517
  0.008812799873517
  0.00769392266638
  0.00769392266638
  0.006066176426798
  0.006066176426798
  0.003200632144643
  0.003200632144643
  0.002465929050452
  2.47E-03
  0.004145107807407
  0.004145107807407
  0.004177792402579
  0.004177792402579
  0.002785432521878
  0.002785432521878
  0.002868257600368
  0.002868257600368
  0.005143608740437
  0.005143608740437
  0.006239819214549
  0.006239819214549
  0.005018292366514
  0.005018292366514
  0.004732430395679
  0.004732430395679
  0.006319275593517
  0.006319275593517
  0.008013228328847
  0.008013228328847
  0.005102708970666
  0.005102708970666
  0.001466482039209
  0.001466482039209
  0.002379055190679
  0.002379055190679
  0.009053356424784
  0.009053356424784
  0.017043740278255
  0.017043740278255
  0.015556497168222
  0.015556497168222
  0.020492452781226
  0.020492452781226
  0.035844704506191
  0.035844704506191
  0.042527897194967
  0.042527897194967
  0.040499775335753
  0.040499775335753
  0.038049491230104
  0.038049491230104
  0.031454869554225
  0.031454869554225
  0.023783973033409
  0.023783973033409
  0.022025637873272
  0.022025637873272
  0.020153953319417
  0.020153953319417
  0.014136108778668
  0.014136108778668
  0.013556647037566
  0.013556647037566
  0.022049284152279
  0.022049284152279
  0.013181393723929
  0.013181393723929
  0.01994359034084
  0.01994359034084
  0.018916362041269
  0.018916362041269
  0
  0
  0
  0
  0
  0
  0
  0
  0
  0
  0
  0
  0
  0
  0.019161393924058
  0.019161393924058
  0.016883066502695
  0.016883066502695
  0.017357555844233
  0.017357555844233
  0.016783956636328
  0.016783956636328
  0.012763805712282
  0.012763805712282
  0.012824330007142
  0.012824330007142
  0.017705827283047
  0.017705827283047
  0.023671778699279
  0.023671778699279
  0.02218034040034
  0.02218034040034
  0.018236903299582
  0.018236903299582
  0.019389575005209
  0.019389575005209
  0.022169627415989
  0.022169627415989
  0.021331929149978
  0.021331929149978
  0.016168577957017
  0.016168577957017
  0.013592508209921
  0.013592508209921
  0.014419625764864
  0.014419625764864
  0.015705140118256
  0.015705140118256
  0.013214631533623
  0.013214631533623
  0.009003113888309
  0.009003113888309
  0.008216066788898
  0.008216066788898
  0.007955601941145
  0.007955601941145
  0.005447631168802
  0.005447631168802
  0.001866175207338
  0.001866175207338
  0.001823758345939
  0.001823758345939
  0.004136824261262
  0.004136824261262
  0.004734067476058
  0.004734067476058
  0.003871307149328
  0.003871307149328
  0.00429886267553
  0.00429886267553
  0.005433914887822
  0.005433914887822
  0.006669364597195
  0.006669364597195
  0.005787262727566
  0.005787262727566
  0.004451319919407
  0.004451319919407
  0.007047733460041
  0.007047733460041
  0.009943510602271
  0.009943510602271
  0.00635598765614
  0.00635598765614
  0.001904150919366
  0.001904150919366
  0.00117900985331
  0.00117900985331
  0.007246980138209
  0.007246980138209
  0.016339721891461
  0.016339721891461
  0.015607910041573
  0.015607910041573
  0.020442674868526
  0.020442674868526
  0.035837145182346
  0.035837145182346
  0.046986827697507
  0.046986827697507
  0.041882970626943
  0.041882970626943
  0.03673976405064
  0.03673976405064
  0.035841945900777
  0.035841945900777
  0.023185326274755
  0.023185326274755
  0.016488881066166
  0.016488881066166
  0.01439543785534
  0.01439543785534
  0.009353298111282
  0.009353298111282
  0.014727975132856
  0.014727975132856
  0.025801578040983
  0.025801578040983
  0.017474453639432
  0.017474453639432
  0.021377699623014
  0.021377699623014
  0.020488459996726
  0.020488459996726
  0
  0
  0
  0
  0
  0
  0
  0
  0
  0
  0
  0
  0
  0
  0.019161393924058
  0.019161393924058
  0.016883066502695
  0.016883066502695
  0.017357555844233
  0.017357555844233
  0.016783956636328
  0.016783956636328
  0.012763805712282
  0.012763805712282
  0.012824330007142
  0.012824330007142
  0.017705827283047
  0.017705827283047
  0.023671778699279
  0.023671778699279
  0.02218034040034
  0.02218034040034
  0.018236903299582
  0.018236903299582
  0.019389575005209
  0.019389575005209
  0.022169627415989
  0.022169627415989
  0.021331929149978
  0.021331929149978
  0.016168577957017
  0.016168577957017
  0.013592508209921
  0.013592508209921
  0.014419625764864
  0.014419625764864
  0.015705140118256
  0.015705140118256
  0.013214631533623
  0.013214631533623
  0.009003113888309
  0.009003113888309
  0.008216066788898
  0.008216066788898
  0.007955601941145
  0.007955601941145
  0.005447631168802
  0.005447631168802
  0.001866175207338
  0.001866175207338
  1.82E-03
  1.82E-03
  0.004136824261262
  0.004136824261262
  0.004734067476058
  0.004734067476058
  0.003871307149328
  0.003871307149328
  0.00429886267553
  0.00429886267553
  0.005433914887822
  0.005433914887822
  0.006669364597195
  0.006669364597195
  0.005787262727566
  0.005787262727566
  0.004451319919407
  0.004451319919407
  0.007047733460041
  0.007047733460041
  0.009943510602271
  0.009943510602271
  0.00635598765614
  0.00635598765614
  0.001904150919366
  0.001904150919366
  0.00117900985331
  0.00117900985331
  0.007246980138209
  0.007246980138209
  0.016339721891461
  0.016339721891461
  0.015607910041573
  0.015607910041573
  0.020442674868526
  0.020442674868526
  0.035837145182346
  0.035837145182346
  0.046986827697507
  0.046986827697507
  0.041882970626943
  0.041882970626943
  0.03673976405064
  0.03673976405064
  0.035841945900777
  3.58E-02
  0.023185326274755
  0.023185326274755
  0.016488881066166
  0.016488881066166
  0.01439543785534
  0.01439543785534
  0.009353298111282
  0.009353298111282
  0.014727975132856
  0.014727975132856
  0.025801578040983
  0.025801578040983
  0.017474453639432
  0.017474453639432
  0.021377699623014
  0.021377699623014
  2.05E-02
  2.05E-02
  0
  0
  0
  0
  0
  0
  0
  0
  0
  0
  0
  0
  0.027173984473244
  0.027173984473244
  0.020458818225606
  0.020458818225606
  0.020456947764482
  0.020456947764482
  0.021558008298806
  0.021558008298806
  0.017516656025568
  0.017516656025568
  0.014125569194794
  0.014125569194794
  0.016509566171041
  0.016509566171041
  0.022546614700729
  0.022546614700729
  0.024498350054781
  0.024498350054781
  0.01927309751082
  0.01927309751082
  0.015285560074321
  0.015285560074321
  0.015555689681372
  0.015555689681372
  0.017371345363358
  0.017371345363358
  0.013130408972585
  0.013130408972585
  0.008943640512304
  0.008943640512304
  0.009696418697169
  0.009696418697169
  0.012738449197519
  0.012738449197519
  0.013925192450186
  0.013925192450186
  0.010237209471275
  0.010237209471275
  0.006718745403253
  0.006718745403253
  0.006626029378398
  0.006626029378398
  0.00776328543878
  0.00776328543878
  0.005328461106224
  0.005328461106224
  0.002247219066962
  0.002247219066962
  2.26E-03
  2.26E-03
  0.004061163366366
  0.004061163366366
  0.004072851250928
  0.004072851250928
  0.003517777344669
  0.003517777344669
  0.004794398767116
  0.004794398767116
  0.004705650057335
  0.004705650057335
  0.005017749165317
  0.005017749165317
  0.005724451483608
  0.005724451483608
  0.005281897769907
  0.005281897769907
  0.00770846969245
  0.00770846969245
  0.009597844613022
  0.009597844613022
  0.008029297341812
  0.008029297341812
  0.002873343779044
  0.002873343779044
  0.000657104061818
  0.000657104061818
  0.003459099687248
  0.003459099687248
  0.011133080666652
  0.011133080666652
  0.016365195796464
  0.016365195796464
  0.019428685778638
  0.019428685778638
  0.030435449404974
  0.030435449404974
  0.045299959528884
  0.045299959528884
  0.041610560866183
  0.041610560866183
  0.035544236714815
  0.035544236714815
  0.034993071090772
  0.034993071090772
  0.027604838034045
  0.027604838034045
  0.016577140325113
  0.016577140325113
  0.009120989514051
  0.009120989514051
  0.009079147465375
  0.009079147465375
  0.014565516022492
  0.014565516022492
  0.022013030181306
  0.022013030181306
  0.021120751118487
  0.021120751118487
  0.01939199793955
  0.01939199793955
  0.022573279751495
  2.26E-02
  0
  0
  0
  0
  0
  0
  0
  0
  0
  0
  0
  0
  0.027173984473244
  0.027173984473244
  0.020458818225606
  0.020458818225606
  0.020456947764482
  0.020456947764482
  0.021558008298806
  0.021558008298806
  0.017516656025568
  0.017516656025568
  0.014125569194794
  0.014125569194794
  0.016509566171041
  0.016509566171041
  0.022546614700729
  0.022546614700729
  0.024498350054781
  0.024498350054781
  0.01927309751082
  0.01927309751082
  0.015285560074321
  0.015285560074321
  0.015555689681372
  0.015555689681372
  0.017371345363358
  0.017371345363358
  0.013130408972585
  0.013130408972585
  0.008943640512304
  0.008943640512304
  0.009696418697169
  0.009696418697169
  0.012738449197519
  0.012738449197519
  0.013925192450186
  0.013925192450186
  0.010237209471275
  0.010237209471275
  0.006718745403253
  0.006718745403253
  0.006626029378398
  0.006626029378398
  0.00776328543878
  0.00776328543878
  0.005328461106224
  0.005328461106224
  0.002247219066962
  0.002247219066962
  0.002260771816591
  0.002260771816591
  0.004061163366366
  0.004061163366366
  0.004072851250928
  0.004072851250928
  0.003517777344669
  0.003517777344669
  0.004794398767116
  0.004794398767116
  0.004705650057335
  0.004705650057335
  0.005017749165317
  0.005017749165317
  0.005724451483608
  0.005724451483608
  0.005281897769907
  0.005281897769907
  0.00770846969245
  0.00770846969245
  0.009597844613022
  0.009597844613022
  0.008029297341812
  0.008029297341812
  0.002873343779044
  0.002873343779044
  0.000657104061818
  0.000657104061818
  0.003459099687248
  0.003459099687248
  0.011133080666652
  0.011133080666652
  0.016365195796464
  0.016365195796464
  0.019428685778638
  0.019428685778638
  0.030435449404974
  0.030435449404974
  0.045299959528884
  0.045299959528884
  0.041610560866183
  0.041610560866183
  0.035544236714815
  0.035544236714815
  0.034993071090772
  0.034993071090772
  0.027604838034045
  0.027604838034045
  0.016577140325113
  0.016577140325113
  0.009120989514051
  0.009120989514051
  9.08E-03
  0.009079147465375
  0.014565516022492
  0.014565516022492
  0.022013030181306
  0.022013030181306
  0.021120751118487
  0.021120751118487
  0.01939199793955
  0.01939199793955
  0.022573279751495
  2.26E-02
  0
  0
  0
  0
  0
  0
  0
  0
  0
  0
  0
  0
  0.020534369660693
  0.020534369660693
  0.01946728564877
  0.01946728564877
  0.024914907605989
  0.024914907605989
  0.023088261463093
  0.023088261463093
  0.016516509681457
  0.016516509681457
  0.013307528293945
  0.013307528293945
  0.016620064375263
  0.016620064375263
  0.020958919479643
  0.020958919479643
  0.018741068468807
  0.018741068468807
  0.01311875131311
  0.01311875131311
  0.008543917080926
  0.008543917080926
  0.008198813994021
  0.008198813994021
  0.009101603154656
  0.009101603154656
  0.005434877912384
  0.005434877912384
  0.002707723048072
  0.002707723048072
  0.00568953361367
  0.00568953361367
  0.010322218274923
  0.010322218274923
  0.011216628932684
  0.011216628932684
  0.008119652456338
  8.12E-03
  5.55E-03
  5.55E-03
  0.005789601569103
  0.005789601569103
  0.006703570512708
  0.006703570512708
  0.005515629870371
  0.005515629870371
  0.003549659167752
  0.003549659167752
  0.003384549843064
  0.003384549843064
  0.004118021193693
  0.004118021193693
  0.003448826675473
  0.003448826675473
  0.002454008711425
  0.002454008711425
  0.00335572900958
  0.00335572900958
  0.003833315217824
  0.003833315217824
  0.00376068396141
  0.00376068396141
  0.006043952150521
  0.006043952150521
  0.005445054429786
  0.005445054429786
  0.007303627330155
  0.007303627330155
  0.010483409965445
  0.010483409965445
  0.009880335398982
  0.009880335398982
  0.004892485175442
  0.004892485175442
  0.001123951539809
  0.001123951539809
  0.001574204112118
  0.001574204112118
  0.003695647825608
  0.003695647825608
  0.00958389814755
  0.00958389814755
  0.018111793644394
  0.018111793644394
  0.022104088440225
  0.022104088440225
  0.033621302442875
  0.033621302442875
  0.043004043250719
  0.043004043250719
  0.037489134952775
  0.037489134952775
  0.034958432924769
  0.034958432924769
  0.035388418066172
  0.035388418066172
  0.025264875015763
  0.025264875015763
  1.74E-02
  0.017364549750128
  1.34E-02
  0.013386294125693
  0.013158535792271
  0.013158535792271
  0.015822230144315
  0.015822230144315
  0.021544169097791
  0.021544169097791
  0.019646684753168
  0.019646684753168
  0.020277204085235
  0.020277204085235
  0
  0
  0
  0
  0
  0
  0
  0
  0
  0
  0
  0
  0.020534369660693
  0.020534369660693
  0.01946728564877
  0.01946728564877
  0.024914907605989
  0.024914907605989
  0.023088261463093
  0.023088261463093
  0.016516509681457
  0.016516509681457
  0.013307528293945
  0.013307528293945
  0.016620064375263
  0.016620064375263
  0.020958919479643
  0.020958919479643
  0.018741068468807
  0.018741068468807
  0.01311875131311
  0.01311875131311
  0.008543917080926
  0.008543917080926
  0.008198813994021
  0.008198813994021
  0.009101603154656
  0.009101603154656
  0.005434877912384
  0.005434877912384
  0.002707723048072
  0.002707723048072
  0.00568953361367
  0.00568953361367
  0.010322218274923
  0.010322218274923
  0.011216628932684
  0.011216628932684
  0.008119652456338
  0.008119652456338
  5.55E-03
  0.005548804144879
  0.005789601569103
  0.005789601569103
  0.006703570512708
  0.006703570512708
  0.005515629870371
  0.005515629870371
  0.003549659167752
  0.003549659167752
  0.003384549843064
  0.003384549843064
  0.004118021193693
  0.004118021193693
  0.003448826675473
  0.003448826675473
  0.002454008711425
  0.002454008711425
  0.00335572900958
  0.00335572900958
  0.003833315217824
  0.003833315217824
  0.00376068396141
  0.00376068396141
  0.006043952150521
  0.006043952150521
  0.005445054429786
  0.005445054429786
  0.007303627330155
  0.007303627330155
  0.010483409965445
  0.010483409965445
  0.009880335398982
  9.88E-03
  0.004892485175442
  0.004892485175442
  0.001123951539809
  0.001123951539809
  0.001574204112118
  0.001574204112118
  0.003695647825608
  0.003695647825608
  0.00958389814755
  0.00958389814755
  0.018111793644394
  0.018111793644394
  0.022104088440225
  0.022104088440225
  0.033621302442875
  0.033621302442875
  0.043004043250719
  0.043004043250719
  0.037489134952775
  0.037489134952775
  0.034958432924769
  0.034958432924769
  0.035388418066172
  0.035388418066172
  0.025264875015763
  0.025264875015763
  0.017364549750128
  0.017364549750128
  0.013386294125693
  1.34E-02
  0.013158535792271
  0.013158535792271
  0.015822230144315
  0.015822230144315
  0.021544169097791
  0.021544169097791
  0.019646684753168
  0.019646684753168
  0.020277204085235
  0.020277204085235
  0
  0
  0
  0
  0
  0
  0
  0
  0
  0
  0.009760970016205
  0.009760970016205
  0.018058742310692
  0.018058742310692
  0.023263881418369
  0.023263881418369
  0.030688051967679
  0.030688051967679
  0.021827709122691
  0.021827709122691
  0.014466304675255
  0.014466304675255
  0.011860545463173
  0.011860545463173
  0.014198436460751
  0.014198436460751
  0.016392566700889
  0.016392566700889
  0.012663449255242
  0.012663449255242
  0.007097538096482
  0.007097538096482
  0.004574166094653
  0.004574166094653
  0.007061981368278
  0.007061981368278
  0.006547562630199
  0.006547562630199
  0.001413522361426
  0.001413522361426
  0.001211036789351
  0.001211036789351
  0.003294442431182
  0.003294442431182
  0.007948358873832
  0.007948358873832
  0.008684970282722
  0.008684970282722
  0.006526453001177
  0.006526453001177
  0.005240316319511
  0.005240316319511
  0.00604162696271
  0.00604162696271
  0.006150687841294
  0.006150687841294
  0.004961270778615
  4.96E-03
  0.004316446554259
  0.004316446554259
  0.004955618128185
  4.96E-03
  0.005812067395535
  0.005812067395535
  0.004141226143661
  0.004141226143661
  0.002560815857393
  0.002560815857393
  0.002220616564526
  0.002220616564526
  0.004168735515144
  0.004168735515144
  0.006510626666167
  0.006510626666167
  0.006128558957861
  0.006128558957861
  0.005848694272646
  0.005848694272646
  0.006880665700144
  0.006880665700144
  0.009672964423592
  0.009672964423592
  0.011159216057651
  0.011159216057651
  0.008259105189007
  0.008259105189007
  0.003453507114703
  0.003453507114703
  0.000552486950731
  0.000552486950731
  0.001939046117285
  0.001939046117285
  0.005258599407396
  0.005258599407396
  0.008414098697708
  0.008414098697708
  0.01760927722592
  0.01760927722592
  0.022494027712531
  0.022494027712531
  0.037887632083875
  0.037887632083875
  0.041420220875754
  0.041420220875754
  0.039348386541791
  0.039348386541791
  0.03792736426527
  0.03792736426527
  0.033198518159407
  0.033198518159407
  0.025284135846083
  0.025284135846083
  0.017477438359428
  0.017477438359428
  0.013537235343417
  0.013537235343417
  0.013380908298477
  1.34E-02
  0.016221896771053
  0.016221896771053
  0.020807961791871
  0.020807961791871
  0.023449701500543
  2.34E-02
  0
  0
  0
  0
  0
  0
  0
  0
  0
  0
  0.009760970016205
  0.009760970016205
  0.018058742310692
  0.018058742310692
  0.023263881418369
  0.023263881418369
  0.030688051967679
  0.030688051967679
  0.021827709122691
  0.021827709122691
  0.014466304675255
  0.014466304675255
  0.011860545463173
  0.011860545463173
  0.014198436460751
  0.014198436460751
  0.016392566700889
  0.016392566700889
  0.012663449255242
  0.012663449255242
  0.007097538096482
  0.007097538096482
  0.004574166094653
  0.004574166094653
  0.007061981368278
  0.007061981368278
  0.006547562630199
  0.006547562630199
  0.001413522361426
  0.001413522361426
  0.001211036789351
  0.001211036789351
  0.003294442431182
  0.003294442431182
  0.007948358873832
  0.007948358873832
  0.008684970282722
  0.008684970282722
  0.006526453001177
  0.006526453001177
  0.005240316319511
  0.005240316319511
  0.00604162696271
  0.00604162696271
  0.006150687841294
  0.006150687841294
  0.004961270778615
  0.004961270778615
  0.004316446554259
  0.004316446554259
  0.004955618128185
  0.004955618128185
  0.005812067395535
  0.005812067395535
  0.004141226143661
  0.004141226143661
  0.002560815857393
  0.002560815857393
  0.002220616564526
  0.002220616564526
  0.004168735515144
  0.004168735515144
  0.006510626666167
  0.006510626666167
  0.006128558957861
  0.006128558957861
  0.005848694272646
  0.005848694272646
  0.006880665700144
  0.006880665700144
  0.009672964423592
  9.67E-03
  0.011159216057651
  0.011159216057651
  0.008259105189007
  0.008259105189007
  0.003453507114703
  0.003453507114703
  0.000552486950731
  0.000552486950731
  0.001939046117285
  0.001939046117285
  0.005258599407396
  0.005258599407396
  0.008414098697708
  0.008414098697708
  0.01760927722592
  0.01760927722592
  0.022494027712531
  0.022494027712531
  0.037887632083875
  0.037887632083875
  0.041420220875754
  0.041420220875754
  0.039348386541791
  0.039348386541791
  0.03792736426527
  0.03792736426527
  0.033198518159407
  0.033198518159407
  0.025284135846083
  0.025284135846083
  0.017477438359428
  0.017477438359428
  0.013537235343417
  0.013537235343417
  0.013380908298477
  0.013380908298477
  0.016221896771053
  0.016221896771053
  0.020807961791871
  0.020807961791871
  0.023449701500543
  0.023449701500543
  0
  0
  0
  0
  0
  0
  0
  0
  0
  0
  0.063410953312097
  0.063410953312097
  0.028892618268188
  0.028892618268188
  0.040629528412986
  0.040629528412986
  0.0303214485878
  0.0303214485878
  0.018773971132169
  0.018773971132169
  0.011882516875225
  0.011882516875225
  0.010265648763683
  0.010265648763683
  0.011531957761025
  0.011531957761025
  0.011912774707685
  0.011912774707685
  0.008636752059239
  0.008636752059239
  0.003549502341421
  0.003549502341421
  0.005387463491232
  0.005387463491232
  0.007345794515866
  0.007345794515866
  0.005245408253192
  0.005245408253192
  0.001992893315821
  0.001992893315821
  0.001392785519357
  0.001392785519357
  0.003026235760808
  0.003026235760808
  0.007089126024061
  0.007089126024061
  0.006572781108891
  0.006572781108891
  0.005606132133836
  0.005606132133836
  0.005486465673402
  0.005486465673402
  0.00596976983191
  0.00596976983191
  0.005276203604277
  0.005276203604277
  0.004107157922231
  0.004107157922231
  0.004342422260507
  0.004342422260507
  0.005733540477302
  0.005733540477302
  0.007085392314643
  0.007085392314643
  0.005283879817475
  0.005283879817475
  0.003603943128888
  0.003603943128888
  0.002599925118656
  0.002599925118656
  0.003426356592135
  0.003426356592135
  0.004893416204592
  0.004893416204592
  0.005816244355188
  0.005816244355188
  0.006361370222713
  0.006361370222713
  0.007537315905211
  0.007537315905211
  0.010169472323851
  0.010169472323851
  0.011612906360704
  0.011612906360704
  0.010507629426448
  0.010507629426448
  0.006300012554584
  0.006300012554584
  0.000724560627325
  0.000724560627325
  0.001115092260591
  0.001115092260591
  0.003161376510691
  0.003161376510691
  0.002792339693613
  0.002792339693613
  0.016841220458442
  0.016841220458442
  0.018719225418299
  0.018719225418299
  0.025052762899094
  0.025052762899094
  0.038459658752393
  0.038459658752393
  0.043063918099176
  0.043063918099176
  0.039170073169776
  0.039170073169776
  0.033941773140747
  0.033941773140747
  0.028300570261595
  0.028300570261595
  0.024142582826312
  0.024142582826312
  0.017906406898984
  0.017906406898984
  0.015260906229053
  0.015260906229053
  0.015522680591598
  0.015522680591598