/*--------------------------------*- C++ -*----------------------------------*\
| =========                 |                                                 |
| \\      /  F ield         | OpenFOAM: The Open Source CFD Toolbox           |
|  \\    /   O peration     | Version:  2.4.0                                 |
|   \\  /    A nd           | Web:      www.OpenFOAM.org                      |
|    \\/     M anipulation  |                                                 |
\*---------------------------------------------------------------------------*/
FoamFile
{
    version     2.0;
    format      ascii;
    class       volScalarField;
    object      Dstar;
}
// * * * * * * * * * * * * * * * * * * * * * * * * * * * * * * * * * * * * * //

dimensions      [0 2 -1 0 0 0 0];

internalField   nonuniform List<scalar>
6448(1.47540983606481e-18
1.47540983606481e-18
1.47540983606481e-18
1.47540983606481e-18
1.47540983606481e-18
1.47540983606481e-18
1.47540983606481e-18
1.47540983606481e-18
1.47540983606481e-18
1.47540983606481e-18
1.47540983606481e-18
1.47540983606481e-18
1.47540983606481e-18
1.47540983606481e-18
1.47540983606481e-18
1.47540983606481e-18
1.47540983606481e-18
1.47540983606481e-18
1.47540983606481e-18
1.47540983606481e-18
1.47540983606481e-18
1.47540983606481e-18
1.47540983606481e-18
1.47540983606481e-18
1.47540983606481e-18
1.47540983606481e-18
1.47540983606481e-18
1.47540983606481e-18
1.47540983606481e-18
1.47540983606481e-18
1.47540983606481e-18
1.47540983606481e-18
1.47540983606481e-18
1.47540983606481e-18
1.47540983606481e-18
1.47540983606481e-18
1.47540983606481e-18
1.47540983606481e-18
1.47540983606481e-18
1.47540983606481e-18
1.47540983606481e-18
1.47540983606481e-18
1.47540983606481e-18
1.47540983606481e-18
1.47540983606481e-18
1.47540983606481e-18
1.47540983606481e-18
1.47540983606481e-18
1.47540983606481e-18
1.47540983606481e-18
1.47540983606481e-18
1.47540983606481e-18
1.47540983606481e-18
1.47540983606481e-18
1.47540983606481e-18
1.47540983606481e-18
1.47540983606481e-18
1.47540983606481e-18
1.47540983606481e-18
1.47540983606481e-18
1.47540983606481e-18
1.47540983606481e-18
1.47540983606481e-18
1.47540983606481e-18
1.47540983606481e-18
1.47540983606481e-18
1.47540983606481e-18
1.47540983606481e-18
1.47540983606481e-18
1.47540983606481e-18
1.47540983606481e-18
1.47540983606481e-18
1.47540983606481e-18
1.47540983606481e-18
1.47540983606481e-18
1.47540983606481e-18
1.47540983606481e-18
1.47540983606481e-18
1.47540983606481e-18
1.47540983606481e-18
1.47540983606481e-18
1.47540983606481e-18
1.47540983606481e-18
1.47540983606481e-18
1.47540983606481e-18
1.47540983606481e-18
1.47540983606481e-18
1.47540983606481e-18
1.47540983606481e-18
1.47540983606481e-18
1.47540983606481e-18
1.47540983606481e-18
1.47540983606481e-18
1.47540983606481e-18
1.47540983606481e-18
1.47540983606481e-18
1.47540983606481e-18
1.47540983606481e-18
1.47540983606481e-18
1.47540983606481e-18
1.47540983606481e-18
1.47540983606481e-18
1.47540983606481e-18
1.47540983606481e-18
1.47540983606481e-18
1.47540983606481e-18
1.47540983606481e-18
1.47540983606481e-18
1.47540983606481e-18
1.47540983606481e-18
1.47540983606481e-18
1.47540983606481e-18
1.47540983606481e-18
1.47540983606481e-18
1.47540983606481e-18
1.47540983606481e-18
1.47540983606481e-18
1.47540983606481e-18
1.47540983606481e-18
1.47540983606481e-18
1.47540983606481e-18
1.47540983606481e-18
1.47540983606481e-18
1.47540983606481e-18
1.47540983606481e-18
1.47540983606481e-18
1.47540983606481e-18
1.47540983606481e-18
1.47540983606481e-18
1.47540983606481e-18
1.47540983606481e-18
1.47540983606481e-18
1.47540983606481e-18
1.47540983606481e-18
1.47540983606481e-18
1.47540983606481e-18
1.47540983606481e-18
1.47540983606481e-18
1.47540983606481e-18
1.47540983606481e-18
1.47540983606481e-18
1.47540983606481e-18
1.47540983606481e-18
1.47540983606481e-18
1.47540983606481e-18
1.47540983606481e-18
1.47540983606481e-18
1.47540983606481e-18
1.47540983606481e-18
1.47540983606481e-18
1.47540983606481e-18
1.47540983606481e-18
1.47540983606481e-18
1.47540983606481e-18
1.47540983606481e-18
1.47540983606481e-18
1.47540983606481e-18
1.47540983606481e-18
1.47540983606481e-18
1.47540983606481e-18
1.47540983606481e-18
1.47540983606481e-18
1.47540983606481e-18
1.47540983606481e-18
1.47540983606481e-18
1.47540983606481e-18
1.47540983606481e-18
1.47540983606481e-18
1.47540983606481e-18
1.47540983606481e-18
1.47540983606481e-18
1.47540983606481e-18
1.47540983606481e-18
1.47540983606481e-18
1.47540983606481e-18
1.47540983606481e-18
1.47540983606481e-18
1.47540983606481e-18
1.47540983606481e-18
1.47540983606481e-18
1.47540983606481e-18
1.47540983606481e-18
1.47540983606481e-18
1.47540983606481e-18
1.47540983606481e-18
1.47540983606481e-18
1.47540983606481e-18
1.47540983606481e-18
1.47540983606481e-18
1.47540983606481e-18
1.47540983606481e-18
1.47540983606481e-18
1.47540983606481e-18
1.47540983606481e-18
1.47540983606481e-18
1.47540983606481e-18
1.47540983606481e-18
1.47540983606481e-18
1.47540983606481e-18
1.47540983606481e-18
1.47540983606481e-18
1.47540983606481e-18
1.47540983606481e-18
1.47540983606481e-18
1.47540983606481e-18
1.47540983606481e-18
1.47540983606481e-18
1.47540983606481e-18
1.47540983606481e-18
1.47540983606481e-18
1.47540983606481e-18
1.47540983606481e-18
1.47540983606481e-18
1.47540983606481e-18
1.47540983606481e-18
1.47540983606481e-18
1.47540983606481e-18
1.47540983606481e-18
1.47540983606481e-18
1.47540983606481e-18
1.47540983606481e-18
1.47540983606481e-18
1.47540983606481e-18
1.47540983606481e-18
1.47540983606481e-18
1.47540983606481e-18
1.47540983606481e-18
1.47540983606481e-18
1.47540983606481e-18
1.47540983606481e-18
1.47540983606481e-18
1.47540983606481e-18
1.47540983606481e-18
1.47540983606481e-18
1.47540983606481e-18
1.47540983606481e-18
1.47540983606481e-18
1.47540983606481e-18
1.47540983606481e-18
1.47540983606481e-18
1.47540983606481e-18
1.47540983606481e-18
1.47540983606481e-18
1.47540983606481e-18
1.47540983606481e-18
1.47540983606481e-18
1.47540983606481e-18
1.47540983606481e-18
1.47540983606481e-18
1.47540983606481e-18
1.47540983606481e-18
1.47540983606481e-18
1.47540983606481e-18
1.47540983606481e-18
1.47540983606481e-18
1.47540983606481e-18
1.47540983606481e-18
1.47540983606481e-18
1.47540983606481e-18
1.47540983606481e-18
1.47540983606481e-18
1.47540983606481e-18
1.47540983606481e-18
1.47540983606481e-18
1.47540983606481e-18
1.47540983606481e-18
1.47540983606481e-18
1.47540983606481e-18
1.47540983606481e-18
1.47540983606481e-18
1.47540983606481e-18
1.47540983606481e-18
1.47540983606481e-18
1.47540983606481e-18
1.47540983606481e-18
1.47540983606481e-18
1.47540983606481e-18
1.47540983606481e-18
1.47540983606481e-18
1.47540983606481e-18
1.47540983606481e-18
1.47540983606481e-18
1.47540983606481e-18
1.47540983606481e-18
1.47540983606481e-18
1.47540983606481e-18
1.47540983606481e-18
1.47540983606481e-18
1.47540983606481e-18
1.47540983606481e-18
1.47540983606481e-18
1.47540983606481e-18
1.47540983606481e-18
1.47540983606481e-18
1.47540983606481e-18
1.47540983606481e-18
1.47540983606481e-18
1.47540983606481e-18
1.47540983606481e-18
1.47540983606481e-18
1.47540983606481e-18
1.47540983606481e-18
1.47540983606481e-18
1.47540983606481e-18
1.47540983606481e-18
1.47540983606481e-18
1.47540983606481e-18
1.47540983606481e-18
1.47540983606481e-18
1.47540983606481e-18
1.47540983606481e-18
1.47540983606481e-18
1.47540983606481e-18
1.47540983606481e-18
1.47540983606481e-18
1.47540983606481e-18
1.47540983606481e-18
1.47540983606481e-18
1.47540983606481e-18
1.47540983606481e-18
1.47540983606481e-18
1.47540983606481e-18
1.47540983606481e-18
1.47540983606481e-18
1.47540983606481e-18
1.47540983606481e-18
1.47540983606481e-18
1.47540983606481e-18
1.47540983606481e-18
1.47540983606481e-18
1.47540983606481e-18
1.47540983606481e-18
1.47540983606481e-18
1.47540983606481e-18
1.47540983606481e-18
1.47540983606481e-18
1.47540983606481e-18
1.47540983606481e-18
1.47540983606481e-18
1.47540983606481e-18
1.47540983606481e-18
1.47540983606481e-18
1.47540983606481e-18
1.47540983606481e-18
1.47540983606481e-18
1.47540983606481e-18
1.47540983606481e-18
1.47540983606481e-18
1.47540983606481e-18
1.47540983606481e-18
1.47540983606481e-18
1.47540983606481e-18
1.47540983606481e-18
1.47540983606481e-18
1.47540983606481e-18
1.47540983606481e-18
1.47540983606481e-18
1.47540983606481e-18
1.47540983606481e-18
1.47540983606481e-18
1.47540983606481e-18
1.47540983606481e-18
1.47540983606481e-18
1.47540983606481e-18
1.47540983606481e-18
1.47540983606481e-18
1.47540983606481e-18
1.47540983606481e-18
1.47540983606481e-18
1.47540983606481e-18
1.47540983606481e-18
1.41444619440381e-18
1.47540983606481e-18
1.47540983606481e-18
1.47540983606481e-18
1.47540983606481e-18
1.47540983606481e-18
1.47540983606481e-18
1.47540983606481e-18
1.47540983606481e-18
1.47540983606481e-18
1.47540983606481e-18
1.47540983606481e-18
1.47540983606481e-18
1.47540983606481e-18
1.47540983606481e-18
1.47540983606481e-18
1.47540983606481e-18
1.47540983606481e-18
1.47540983606481e-18
1.47540983606481e-18
1.47540983606481e-18
1.47540983606481e-18
1.47540983606481e-18
1.47540983606481e-18
1.47540983606481e-18
1.47540983606481e-18
1.47540983606481e-18
1.47540983606481e-18
1.47540983606481e-18
1.47540983606481e-18
1.47540983606481e-18
1.47540983606481e-18
1.47540983606481e-18
1.47540983606481e-18
1.47540983606481e-18
1.47540983606481e-18
1.47540983606481e-18
1.47540983606481e-18
1.47540983606481e-18
1.47540983606481e-18
1.47540983606481e-18
1.47540983606481e-18
1.47540983606481e-18
1.47540983606481e-18
1.47540983606481e-18
1.47540983606481e-18
1.47540983606481e-18
1.47540983606481e-18
1.47540983606481e-18
1.47540983606481e-18
1.47540983606481e-18
1.47540983606481e-18
1.47540983606481e-18
1.47540983606481e-18
1.47540983606481e-18
1.47540983606481e-18
1.47540983606481e-18
1.47540983606481e-18
1.47540983606481e-18
1.47540983606481e-18
2.14826692071694e-19
1.63949985867774e-19
1.47540983604600e-18
1.47540983606481e-18
1.47540983606481e-18
1.47540983606481e-18
1.47540983606481e-18
1.47540983606481e-18
1.47540983606481e-18
1.47540983606481e-18
1.47540983606481e-18
1.47540983606481e-18
1.47540983606481e-18
1.47540983606481e-18
1.47540983606481e-18
1.47540983606481e-18
1.47540983606481e-18
1.47540983606481e-18
1.47540983606481e-18
1.47540983606481e-18
1.47540983606481e-18
1.47540983606481e-18
1.47540983606481e-18
1.47540983606481e-18
1.47540983606481e-18
1.47540983606481e-18
1.47540983606481e-18
1.47540983606481e-18
1.47540983606481e-18
1.47540983606481e-18
1.47540983606481e-18
1.47540983606481e-18
1.47540983606481e-18
1.47540983606481e-18
1.47540983606481e-18
1.47540983606481e-18
1.47540983606481e-18
1.47540983606481e-18
1.47540983606481e-18
1.47540983606481e-18
1.47540983606481e-18
1.47540983606481e-18
1.47540983606481e-18
1.47540983606481e-18
1.47540983606481e-18
1.47540983606481e-18
1.47540983606481e-18
1.47540983606481e-18
1.47540983606481e-18
1.47540983606481e-18
1.47540983606481e-18
1.47540983606481e-18
1.47540983606481e-18
1.47540983606481e-18
1.47540983606481e-18
1.47540983606481e-18
1.47540983606481e-18
1.47540983606481e-18
1.47540983606481e-18
1.47540983606481e-18
1.47540983606481e-18
1.07994194428289e-19
1.62255639526544e-19
1.68644996205438e-19
1.65618685839388e-19
1.47540983606481e-18
1.47540983606481e-18
1.47540983606481e-18
1.47540983606481e-18
1.47540983606481e-18
1.47540983606481e-18
1.47540983606481e-18
1.47540983606481e-18
1.47540983606481e-18
1.47540983606481e-18
1.47540983606481e-18
1.47540983606481e-18
1.47540983606481e-18
1.47540983606481e-18
1.47540983606481e-18
1.47540983606481e-18
1.47540983606481e-18
1.47540983606481e-18
1.47540983606481e-18
1.47540983606481e-18
1.47540983606481e-18
1.47540983606481e-18
1.47540983606481e-18
1.47540983606481e-18
1.47540983606481e-18
1.47540983606481e-18
1.47540983606481e-18
1.47540983606481e-18
1.47540983606481e-18
1.47540983606481e-18
1.47540983606481e-18
1.47540983606481e-18
1.47540983606481e-18
1.52240948120584e-12
2.01487578942612e-12
1.34825497822868e-12
1.47540983606481e-18
1.47540983606481e-18
1.47540983606481e-18
1.47540983606481e-18
1.47540983606481e-18
1.47540983606481e-18
1.47540983606481e-18
1.47540983606481e-18
1.47540983606481e-18
1.47540983606481e-18
1.47540983606481e-18
1.47540983606481e-18
1.47540983606481e-18
1.47540983606481e-18
1.47540983606481e-18
1.47540983606481e-18
1.47540983606481e-18
1.47540983606481e-18
1.47540983606481e-18
1.47540983606481e-18
1.47540983606481e-18
1.47540983606481e-18
1.17923803409490e-19
2.06933509152118e-19
2.69010219206246e-19
2.19055899036810e-19
1.47540983606481e-18
1.47540983606481e-18
1.47540983606481e-18
1.47540983606481e-18
1.47540983606481e-18
1.47540983606481e-18
1.47540983606481e-18
1.47540983606481e-18
1.47540983606481e-18
1.47540983606481e-18
1.47540983606481e-18
1.47540983606481e-18
1.47540983606481e-18
1.47540983606481e-18
1.47540983606481e-18
1.47540983606481e-18
1.47540983606481e-18
1.47540983606481e-18
1.47540983606481e-18
1.47540983606481e-18
1.47540983606481e-18
1.47540983606481e-18
1.47540983606481e-18
1.47540983606481e-18
1.47540983606481e-18
1.47540983606481e-18
1.47540983606481e-18
1.47540983606481e-18
1.47540983606481e-18
1.79444283717872e-13
2.47500916474858e-13
2.15375038536588e-13
2.79693747546721e-13
6.43235201727326e-13
9.82938692545303e-13
7.52378311435133e-13
3.12552149061385e-13
3.99261099479176e-13
1.47540983606481e-18
1.47540983606481e-18
1.47540983606481e-18
1.47540983606481e-18
1.47540983606481e-18
1.47540983606481e-18
1.47540983606481e-18
1.47540983606481e-18
1.47540983606481e-18
1.47540983606481e-18
1.47540983606481e-18
1.47540983606481e-18
1.47540983606481e-18
1.47540983606481e-18
1.47540983606481e-18
1.47540983606481e-18
1.47540983606481e-18
1.47540983606481e-18
1.47540983606481e-18
8.73596351477477e-20
1.12309496315109e-19
1.89299460331773e-19
2.89907330062393e-19
4.06376039102020e-19
1.47540983606481e-18
1.47540983606481e-18
1.47540983606481e-18
1.47540983606481e-18
1.47540983606481e-18
1.47540983606481e-18
1.47540983606481e-18
1.47540983606481e-18
1.47540983606481e-18
1.47540983606481e-18
1.47540983606481e-18
1.47540983606481e-18
1.47540983606481e-18
1.47540983606481e-18
1.47540983606481e-18
1.47540983606481e-18
1.47540983606481e-18
1.47540983606481e-18
1.47540983606481e-18
1.47540983606481e-18
1.47540983606481e-18
1.47540983606481e-18
1.47540983606481e-18
1.47540983606481e-18
1.47540983606481e-18
1.47540983606481e-18
1.26013741836864e-13
6.84412754285603e-14
6.82603899829152e-14
1.07944443623421e-13
1.26681595495423e-13
1.14287612305263e-13
1.46302307704826e-13
2.23680554688027e-13
4.33918592606881e-13
4.22465513041053e-13
3.00226724881657e-13
2.65326349093841e-13
4.23142297116073e-13
6.49491464388239e-13
8.29453433788586e-13
1.47540983606481e-18
1.47540983606481e-18
1.47540983606481e-18
1.47540983606481e-18
1.47540983606481e-18
1.47540983606481e-18
1.47540983606481e-18
1.47540983606481e-18
1.47540983606481e-18
1.47540983606481e-18
1.47540983606481e-18
1.47540983606481e-18
1.47540983606481e-18
1.47540983606481e-18
1.47540983606481e-18
7.59641220074529e-20
8.86673058412580e-20
1.35027187579163e-19
1.66130736118192e-19
1.47524670022366e-18
1.47540983530923e-18
1.47540983606481e-18
1.47540983606481e-18
1.47540983606481e-18
1.47540983606481e-18
1.47540983606481e-18
1.47540983606481e-18
1.47540983606481e-18
1.47540983606481e-18
1.47540983606481e-18
1.47540983606481e-18
1.47540983606481e-18
1.47540983606481e-18
1.47540983606481e-18
1.47540983606481e-18
1.47540983606481e-18
1.47540983606481e-18
1.47540983606481e-18
1.47540983606481e-18
1.47540983606481e-18
1.47540983606481e-18
1.47540983606481e-18
1.47540983606481e-18
1.47540983606481e-18
1.47540983606481e-18
1.47540983606481e-18
2.15286410278923e-13
1.11804390314099e-13
2.64923165619077e-14
8.21034889508131e-15
1.23630419769238e-14
2.48578151365583e-14
2.77203560680299e-14
8.87110777164423e-14
9.38594986698683e-14
1.43529105218139e-13
2.76744330801856e-13
2.85500828298330e-13
2.02885755118849e-13
1.85240081040464e-13
2.09529756821654e-13
3.89815242544012e-13
4.12546183766710e-13
6.51660926031072e-13
4.74163972402444e-12
1.47540983606481e-18
1.47540983606481e-18
1.47540983606481e-18
1.47540983606481e-18
1.47540983606481e-18
1.47540983606481e-18
1.47540983606481e-18
1.47540983606481e-18
1.47540983606481e-18
1.47540983606481e-18
1.47540983606481e-18
7.70788986622898e-20
8.02157000498995e-20
9.38697925260443e-20
1.48929015911815e-19
2.02932705896074e-19
1.47540983549306e-18
1.47540983503421e-18
1.47540983606481e-18
1.47540983606481e-18
1.47540983606481e-18
1.47540983606481e-18
1.47540983606481e-18
1.47540983606481e-18
1.47540983606481e-18
1.47540983606481e-18
1.47540983606481e-18
1.47540983606481e-18
1.47540983606481e-18
1.47540983606481e-18
1.47540983606481e-18
1.47540983606481e-18
1.47540983606481e-18
1.47540983606481e-18
1.47540983606481e-18
1.47540983606481e-18
1.47540983606481e-18
1.47540983606481e-18
1.47540983606481e-18
1.47540983606481e-18
1.47540983606481e-18
1.47540983606481e-18
2.49182724192929e-13
1.53624424873075e-13
5.24365783141555e-14
9.51684073642813e-17
9.42968245572000e-20
1.10950174233607e-19
1.17398105292050e-19
7.72336440483710e-15
3.47278402728466e-14
6.07321015505766e-14
9.64398632049298e-14
1.51927641474499e-13
1.58393993229119e-13
1.28086843547281e-13
8.01152372203546e-14
8.52993789371498e-14
1.51094047899390e-13
2.92800388587866e-13
2.72467978548933e-19
4.03322302822637e-19
1.47540983606481e-18
1.47540983606481e-18
1.47540983606481e-18
1.47540983606481e-18
1.47540983606481e-18
1.47540983606481e-18
1.47540983606481e-18
1.47540983606481e-18
1.47540983606481e-18
1.47540983606481e-18
1.47540983606481e-18
1.02828875420101e-19
1.07240803557360e-19
9.95449139577542e-20
1.43509014909929e-19
2.09754641705418e-19
1.47540983574215e-18
1.47534385380860e-18
1.47540983606481e-18
1.47540983606481e-18
1.47540983606481e-18
1.47540983606481e-18
1.47540983606481e-18
1.47540983606481e-18
1.47540983606481e-18
1.47540983606481e-18
1.47540983606481e-18
1.47540983606481e-18
1.47540983606481e-18
1.47540983606481e-18
1.47540983606481e-18
1.47540983606481e-18
1.47540983606481e-18
1.47540983606481e-18
1.47540983606481e-18
1.47540983606481e-18
1.47540983606481e-18
1.47540983606481e-18
1.47540983606481e-18
1.47540983606481e-18
1.47540983606481e-18
3.21699677504212e-13
1.78986079695165e-13
5.40751482756871e-14
8.35270889633399e-17
1.03529153728505e-19
1.87298710542740e-19
1.68104150891176e-19
4.68186317083632e-15
7.09416126011792e-14
1.11145423937151e-13
9.70589350203926e-14
7.30411250440851e-14
1.01223686483256e-13
1.18475651187879e-13
1.10864334370675e-13
9.06142666849579e-14
1.05923092356693e-13
1.82182950330871e-13
2.40333265866497e-13
3.68077929602849e-13
4.47282643618277e-13
3.91177016030900e-13
1.47540983606481e-18
1.47540983606481e-18
1.47540983606481e-18
1.47540983606481e-18
1.47540983606481e-18
1.47540983606481e-18
4.16885094669164e-13
3.03456228431060e-13
3.06761267217499e-13
3.09898590356989e-13
1.62082212958673e-19
1.31500404566931e-19
9.76937629478566e-20
1.24954597831000e-19
1.79856950541830e-19
3.86414963958463e-19
1.47525168540974e-18
1.47540983606481e-18
1.47540983606481e-18
1.47540983606481e-18
1.47540983606481e-18
1.47540983606481e-18
1.47540983606481e-18
1.47540983606481e-18
1.47540983606481e-18
1.47540983606481e-18
1.47540983606481e-18
1.47540983606481e-18
1.47540983606481e-18
1.47540983606481e-18
1.47540983606481e-18
1.47540983606481e-18
1.47540983606481e-18
1.47540983606481e-18
1.47540983606481e-18
1.47540983606481e-18
1.47540983606481e-18
1.47540983606481e-18
1.47540983606481e-18
9.68137867511271e-13
3.16000679609381e-13
1.03527624575754e-13
1.93370688149727e-14
8.38650827338820e-15
1.23978813731145e-14
1.12067332750086e-19
3.76079894168447e-15
4.22375166993176e-14
9.37302508086074e-14
1.36542698681398e-13
1.19410639774932e-13
7.58469306534359e-14
8.93253374482800e-14
1.21577989642329e-13
1.17303458495604e-13
9.73982077752581e-14
9.77239494417654e-14
1.30476159439866e-13
1.48136303629160e-13
3.61216218984112e-13
3.12959501900404e-13
3.86516899334305e-13
2.32454782708362e-13
1.47540983606481e-18
1.17109093331830e-19
1.14849037652557e-19
1.47540983606481e-18
2.22424840234061e-19
3.69090397517501e-13
2.82501213856609e-13
3.19599533983661e-13
4.10640859981521e-13
1.83768796919698e-19
1.33346374374836e-19
9.36382459394678e-20
1.15488562066853e-19
1.57161021254007e-19
1.97751050259485e-19
5.47377518230067e-19
1.47540983606481e-18
1.47540983606481e-18
1.47540983606481e-18
1.47540983606481e-18
1.47540983606481e-18
1.47540983606481e-18
1.47540983606481e-18
1.47540983606481e-18
1.47540983606481e-18
1.47540983606481e-18
1.47540983606481e-18
1.47540983606481e-18
1.47540983606481e-18
1.47540983606481e-18
1.47540983606481e-18
1.47540983606481e-18
1.47540983606481e-18
1.47540983606481e-18
1.47540983606481e-18
1.47540983606481e-18
1.47540983606481e-18
2.07299018668191e-12
5.13423611207936e-13
2.22185506275263e-13
9.04360015902535e-14
2.67984932112282e-14
4.01710497298138e-14
6.59751057077270e-14
7.57230505845628e-14
5.28253273370161e-14
4.57737279706660e-14
6.32111984119596e-14
9.43723995435257e-14
1.03144722031201e-13
1.22582799283224e-13
1.50982433353687e-13
1.74626215641808e-13
1.24595234270013e-13
6.98494584168693e-14
4.87269009523838e-14
5.34180592159948e-14
1.67532558377573e-13
2.47146342368416e-13
3.26275121174145e-13
3.42604248507741e-13
2.07108958073851e-13
2.33402462699802e-13
1.18144326036349e-19
1.18246670780131e-19
1.53542220888933e-19
3.61554997584911e-12
1.83062323876813e-19
1.32199544712135e-19
3.19325895477086e-13
5.02911359230762e-13
4.59004597822779e-13
1.24342193410535e-19
1.02992780247766e-19
1.22965856925677e-19
1.51171589818031e-19
2.02963178679929e-19
1.47540977700502e-18
1.47540983606481e-18
1.47540983606481e-18
1.47540983606481e-18
1.47540983606481e-18
1.47540983606481e-18
1.47540983606481e-18
1.47540983606481e-18
1.47540983606481e-18
1.47540983606481e-18
1.47540983606481e-18
1.47540983606481e-18
1.47540983606481e-18
1.47540983606481e-18
1.47540983606481e-18
1.47540983606481e-18
1.47540983606481e-18
1.47540983606481e-18
1.47540983606481e-18
1.47540983606481e-18
1.47540983606481e-18
2.38290273543530e-12
5.65312843411935e-13
3.68252402540626e-13
2.18173563507977e-13
6.80838464828863e-14
3.06101107794717e-14
7.40978924019599e-14
1.06877000259763e-13
1.12184127044620e-13
1.25841582827736e-13
9.24674479763518e-14
7.46527887814286e-14
1.51945294404769e-19
1.56887653894306e-19
2.03071885141155e-19
2.43551491970955e-19
2.03897015966843e-19
1.44502875253506e-19
9.42171679524703e-20
6.85222791541533e-20
5.89188246324174e-20
5.94411295098588e-20
6.58776370262234e-20
1.94264672906701e-13
2.30590494210238e-13
1.51997026378711e-13
1.41385151443386e-13
8.69299617598251e-20
9.19796447342938e-20
3.97100998742356e-12
3.43877553872061e-12
3.24522055205065e-12
1.15441878805176e-19
2.24242241417864e-13
4.58363605942329e-13
5.07558274808621e-13
1.39762892695997e-19
1.09827873312391e-19
1.28847486522295e-19
1.40864684641468e-19
2.31742391257202e-19
4.03052349829036e-19
1.47540983606481e-18
1.47540983606481e-18
1.47540983606481e-18
1.47540983606481e-18
1.47540983606481e-18
1.47540983606481e-18
1.47540983606481e-18
1.47540983606481e-18
1.47540983606481e-18
1.47540983606481e-18
1.47540983606481e-18
1.47540983606481e-18
1.47540983606481e-18
1.47540983606481e-18
1.47540983606481e-18
1.47540983606481e-18
1.47540983606481e-18
1.47540983606481e-18
1.47540983606481e-18
1.47540983606481e-18
6.95090410212013e-13
4.75743191805888e-13
3.90010901145246e-13
1.67681482941397e-13
2.69133163747850e-14
4.27642361371914e-14
1.10168629754293e-13
1.48012813597022e-13
2.36340540673050e-13
2.11496798708342e-13
3.36277138870111e-13
1.96489006691828e-13
1.45111309183242e-19
1.25871476630621e-19
1.60571458781994e-19
2.30525745935139e-19
2.79888210627718e-19
2.36649787405545e-19
1.87489966973086e-19
1.46427396453637e-19
1.16838721766019e-19
1.00845113513389e-19
9.56572441535097e-20
9.96454703735556e-20
9.62784600956192e-20
7.89053754566176e-20
3.80607392066380e-14
3.87180309109947e-14
6.42823374812941e-12
5.04092024980763e-12
4.37459130618445e-12
3.69729352837345e-19
1.04973781699183e-19
1.02836426146841e-19
2.94848425788303e-13
4.48517413062266e-13
1.52339477874564e-19
1.13158593497772e-19
1.25771483315050e-19
1.44503495239226e-19
2.15424942406873e-19
1.26502745083081e-18
1.47540983606481e-18
1.47540983606481e-18
1.47540983606481e-18
1.47540983606481e-18
1.47540983606481e-18
1.47540983606481e-18
1.47540983606481e-18
1.47540983606481e-18
1.47540983606481e-18
1.47540983606481e-18
1.47540983606481e-18
1.47540983606481e-18
1.47540983606481e-18
1.47540983606481e-18
1.47540983606481e-18
1.47540983606481e-18
1.47540983606481e-18
1.47540983606481e-18
2.95172840986631e-12
1.20830015241875e-12
5.50424414888510e-13
4.54621049551346e-13
2.76977375429391e-13
5.26690045848481e-14
1.37034165777989e-14
5.50042081846140e-14
1.39741217250159e-13
1.91876874058698e-13
2.89552521416583e-13
3.54033851001814e-13
3.41073709179923e-13
3.26606903305544e-13
1.92404013479294e-13
1.13459987542288e-19
1.37347996239465e-19
2.13748252168382e-19
2.46447101372911e-19
2.59063088079633e-19
2.60410710766008e-19
2.16289321077475e-19
1.64744085386800e-19
1.33407657165417e-19
1.30482370767322e-19
1.45869340966188e-19
1.33241745202664e-19
9.33855941942552e-20
6.85631916609257e-20
9.13127153483220e-16
1.57199959101614e-12
4.78618685386111e-13
4.73039880303630e-12
9.41888718210808e-19
1.14671710878928e-19
9.86242898779267e-20
1.03870023274914e-19
2.77749231685350e-13
1.54152849783387e-19
1.22601722697511e-19
1.19415093445860e-19
1.64561478761258e-19
2.49730618637563e-19
6.08908485518068e-19
1.47540983606481e-18
1.47540983606481e-18
1.47540983606481e-18
1.47540983606481e-18
1.47540983606481e-18
1.47540983606481e-18
1.47540983606481e-18
1.47540983606481e-18
1.47540983606481e-18
1.47540983606481e-18
1.47540983606481e-18
1.47540983606481e-18
1.47540983606481e-18
1.47540983606481e-18
1.47540983606481e-18
1.47540983606481e-18
1.47540983606481e-18
1.47540983606481e-18
1.47540983606481e-18
7.81670141087074e-13
5.15371786286749e-13
1.43728956269208e-11
1.13030752984542e-13
1.68067209538438e-14
3.01810630425413e-14
8.80453514942601e-14
1.60882135774406e-13
2.47746935595813e-13
3.38182168430584e-13
4.26102811093059e-13
4.38763018762136e-13
3.24964439448026e-13
2.30955150090764e-13
1.54163147224709e-13
1.06897850999232e-19
1.67052401159020e-19
1.86441951188321e-19
1.96362281405135e-19
2.36978188277650e-19
2.44169576365179e-19
1.85239258727314e-19
1.23965909233041e-19
1.12388993987315e-19
1.21053047570553e-19
1.24037358740977e-19
1.14543734653094e-19
9.45390284999430e-20
7.42564728552043e-20
1.94875339700678e-12
2.09996447741364e-12
2.90093527779622e-19
2.97794306369847e-12
1.13293733589369e-19
1.03085707428906e-19
9.13388154985795e-20
1.25333015531373e-19
1.59372195678658e-19
1.25257443052573e-19
1.30033119187832e-19
1.99842736799439e-19
4.20278468132557e-19
9.91599827579338e-19
1.47540983606481e-18
1.47540983606481e-18
1.47540983606481e-18
1.47540983606481e-18
1.47540983606481e-18
1.47540983606481e-18
1.47540983606481e-18
1.47540983606481e-18
1.47540983606481e-18
1.47540983606481e-18
1.47540983606481e-18
1.47540983606481e-18
1.47540983606481e-18
1.47540983606481e-18
1.47540983606481e-18
1.47540983606481e-18
1.47540983606481e-18
1.47540983606481e-18
1.34312927964704e-12
8.19166724816879e-13
4.91972860602268e-13
2.26409772359937e-13
4.90189130511605e-14
2.19369024686391e-14
6.30542898864729e-14
1.73106309587363e-13
3.26325064642058e-13
2.85737161449232e-13
4.43834103563525e-13
5.13640764251690e-13
4.55091355661116e-13
3.69048617088612e-13
2.83351674558671e-13
2.54569689991167e-13
9.91734079738046e-20
1.19984392682118e-19
1.34697059906793e-19
1.45647463180002e-19
1.69727731172299e-19
2.20608353618502e-19
2.12145883530480e-19
1.56372664812356e-19
1.23623688453501e-19
1.07586203982767e-19
1.07766733942214e-19
1.21582342077829e-19
1.36109758116225e-19
1.21314954655525e-19
2.83031789579061e-19
1.64971437893195e-12
2.41595921189598e-19
8.07521098505151e-20
1.19630512275556e-12
1.81340882362278e-19
6.64950396750890e-13
1.15920082088612e-19
2.46556634685483e-19
3.23989750318103e-12
1.45504460523472e-19
2.44405267946013e-19
5.64768372978714e-19
1.47540983604888e-18
1.47540983606481e-18
1.47540983606481e-18
1.47540983606481e-18
1.47540983606481e-18
1.47540983606481e-18
1.47540983606481e-18
1.47540983606481e-18
1.47540983606481e-18
1.47540983606481e-18
1.47540983606481e-18
1.47540983606481e-18
1.47540983606481e-18
1.47540983606481e-18
1.47540983606481e-18
1.47540983606481e-18
1.47540983606481e-18
1.47540983606481e-18
1.78852448620815e-12
1.66207606822199e-12
1.01383534704571e-12
5.94766871135411e-13
2.24544571095583e-13
6.85666998469103e-14
4.37194480318909e-14
7.21320523273786e-14
1.95433870760309e-13
3.61549409216915e-13
3.72811656929763e-13
6.10046048869859e-13
7.19793028770434e-13
5.94006301222744e-13
4.37058913561323e-13
3.24791809069054e-13
2.88909664777267e-13
1.13242318830658e-19
9.89519040581358e-20
1.02499680557825e-19
1.15355159938949e-19
1.40510447221873e-19
1.82911969931752e-19
2.13346752657982e-19
2.03949440447033e-19
1.65511568129465e-19
1.29885303254101e-19
1.12307106149111e-19
1.18544828555064e-19
1.50147299754119e-19
1.75576176074781e-19
1.47569568032507e-19
1.06861902712809e-19
9.23200834908359e-20
2.99303732744377e-12
6.52164305394723e-13
1.62481541602622e-19
2.17499139928133e-19
3.40446636705611e-12
2.33180091629753e-19
5.42882937314146e-19
1.84667089814772e-19
2.29743331058888e-19
3.48372960831968e-19
1.47531940479428e-18
1.47540983606481e-18
1.47540983606481e-18
1.47540983606481e-18
1.47540983606481e-18
1.47540983606481e-18
1.47540983606481e-18
1.47540983606481e-18
1.47540983606481e-18
1.47540983606481e-18
1.47540983606481e-18
1.47540983606481e-18
1.47540983606481e-18
1.47540983606481e-18
1.47540983606481e-18
1.47540983606481e-18
1.47540983606481e-18
1.05138086288229e-12
1.46556828629297e-12
1.54796130486002e-12
1.37685329731019e-12
9.82392016600790e-13
4.86583282462410e-13
1.73040926072665e-13
6.72436482419413e-14