/*--------------------------------*- C++ -*----------------------------------*\
| =========                 |                                                 |
| \\      /  F ield         | OpenFOAM: The Open Source CFD Toolbox           |
|  \\    /   O peration     | Version:  2.4.0                                 |
|   \\  /    A nd           | Web:      www.OpenFOAM.org                      |
|    \\/     M anipulation  |                                                 |
\*---------------------------------------------------------------------------*/
FoamFile
{
    version     2.0;
    format      ascii;
    class       volScalarField;
    object      kstar;
}
// * * * * * * * * * * * * * * * * * * * * * * * * * * * * * * * * * * * * * //

dimensions      [0 0 -1 0 0 0 0];

internalField   nonuniform List<scalar>
6448
(1.11475490163877e-07
1.11475490163877e-07
1.11475490163877e-07
1.11475490163877e-07
1.11475490163877e-07
1.11475490163877e-07
1.11475490163877e-07
1.11475490163877e-07
1.11475490163877e-07
1.11475490163877e-07
1.11475490163877e-07
1.11475490163877e-07
1.11475490163877e-07
1.11475490163877e-07
1.11475490163877e-07
1.11475490163877e-07
1.11475490163877e-07
1.11475490163877e-07
1.11475490163877e-07
1.11475490163877e-07
1.11475490163877e-07
1.11475490163877e-07
1.11475490163877e-07
1.11475490163877e-07
1.11475490163877e-07
1.11475490163877e-07
1.11475490163877e-07
1.11475490163877e-07
1.11475490163877e-07
1.11475490163877e-07
1.11475490163877e-07
1.11475490163877e-07
1.11475490163877e-07
1.11475490163877e-07
1.11475490163877e-07
1.11475490163877e-07
1.11475490163877e-07
1.11475490163877e-07
1.11475490163877e-07
1.11475490163877e-07
1.11475490163877e-07
1.11475490163877e-07
1.11475490163877e-07
1.11475490163877e-07
1.11475490163877e-07
1.11475490163877e-07
1.11475490163877e-07
1.11475490163877e-07
1.11475490163877e-07
1.11475490163877e-07
1.11475490163877e-07
1.11475490163877e-07
1.11475490163877e-07
1.11475490163877e-07
1.11475490163877e-07
1.11475490163877e-07
1.11475490163877e-07
1.11475490163877e-07
1.11475490163877e-07
1.11475490163877e-07
1.11475490163877e-07
1.11475490163877e-07
1.11475490163877e-07
1.11475490163877e-07
1.11475490163877e-07
1.11475490163877e-07
1.11475490163877e-07
1.11475490163877e-07
1.11475490163877e-07
1.11475490163877e-07
1.11475490163877e-07
1.11475490163877e-07
1.11475490163877e-07
1.11475490163877e-07
1.11475490163877e-07
1.11475490163877e-07
1.11475490163877e-07
1.11475490163877e-07
1.11475490163877e-07
1.11475490163877e-07
1.11475490163877e-07
1.11475490163877e-07
1.11475490163877e-07
1.11475490163877e-07
1.11475490163877e-07
1.11475490163877e-07
1.11475490163877e-07
1.11475490163877e-07
1.11475490163877e-07
1.11475490163877e-07
1.11475490163877e-07
1.11475490163877e-07
1.11475490163877e-07
1.11475490163877e-07
1.11475490163877e-07
1.11475490163877e-07
1.11475490163877e-07
1.11475490163877e-07
1.11475490163877e-07
1.11475490163877e-07
1.11475490163877e-07
1.11475490163877e-07
1.11475490163877e-07
1.11475490163877e-07
1.11475490163877e-07
1.11475490163877e-07
1.11475490163877e-07
1.11475490163877e-07
1.11475490163877e-07
1.11475490163877e-07
1.11475490163877e-07
1.11475490163877e-07
1.11475490163877e-07
1.11475490163877e-07
1.11475490163877e-07
1.11475490163877e-07
1.11475490163877e-07
1.11475490163877e-07
1.11475490163877e-07
1.11475490163877e-07
1.11475490163877e-07
1.11475490163877e-07
1.11475490163877e-07
1.11475490163877e-07
1.11475490163877e-07
1.11475490163877e-07
1.11475490163877e-07
1.11475490163877e-07
1.11475490163877e-07
1.11475490163877e-07
1.11475490163877e-07
1.11475490163877e-07
1.11475490163877e-07
1.11475490163877e-07
1.11475490163877e-07
1.11475490163877e-07
1.11475490163877e-07
1.11475490163877e-07
1.11475490163877e-07
1.11475490163877e-07
1.11475490163877e-07
1.11475490163877e-07
1.11475490163877e-07
1.11475490163877e-07
1.11475490163877e-07
1.11475490163877e-07
1.11475490163877e-07
1.11475490163877e-07
1.11475490163877e-07
1.11475490163877e-07
1.11475490163877e-07
1.11475490163877e-07
1.11475490163877e-07
1.11475490163877e-07
1.11475490163877e-07
1.11475490163877e-07
1.11475490163877e-07
1.11475490163877e-07
1.11475490163877e-07
1.11475490163877e-07
1.11475490163877e-07
1.11475490163877e-07
1.11475490163877e-07
1.11475490163877e-07
1.11475490163877e-07
1.11475490163877e-07
1.11475490163877e-07
1.11475490163877e-07
1.11475490163877e-07
1.11475490163877e-07
1.11475490163877e-07
1.11475490163877e-07
1.11475490163877e-07
1.11475490163877e-07
1.11475490163877e-07
1.11475490163877e-07
1.11475490163877e-07
1.11475490163877e-07
1.11475490163877e-07
1.11475490163877e-07
1.11475490163877e-07
1.11475490163877e-07
1.11475490163877e-07
1.11475490163877e-07
1.11475490163877e-07
1.11475490163877e-07
1.11475490163877e-07
1.11475490163877e-07
1.11475490163877e-07
1.11475490163877e-07
1.11475490163877e-07
1.11475490163877e-07
1.11475490163877e-07
1.11475490163877e-07
1.11475490163877e-07
1.11475490163877e-07
1.11475490163877e-07
1.11475490163877e-07
1.11475490163877e-07
1.11475490163877e-07
1.11475490163877e-07
1.11475490163877e-07
1.11475490163877e-07
1.11475490163877e-07
1.11475490163877e-07
1.11475490163877e-07
1.11475490163877e-07
1.11475490163877e-07
1.11475490163877e-07
1.11475490163877e-07
1.11475490163877e-07
1.11475490163877e-07
1.11475490163877e-07
1.11475490163877e-07
1.11475490163877e-07
1.11475490163877e-07
1.11475490163877e-07
1.11475490163877e-07
1.11475490163877e-07
1.11475490163877e-07
1.11475490163877e-07
1.11475490163877e-07
1.11475490163877e-07
1.11475490163877e-07
1.11475490163877e-07
1.11475490163877e-07
1.11475490163877e-07
1.11475490163877e-07
1.11475490163877e-07
1.11475490163877e-07
1.11475490163877e-07
1.11475490163877e-07
1.11475490163877e-07
1.11475490163877e-07
1.11475490163877e-07
1.11475490163877e-07
1.11475490163877e-07
1.11475490163877e-07
1.11475490163877e-07
1.11475490163877e-07
1.11475490163877e-07
1.11475490163877e-07
1.11475490163877e-07
1.11475490163877e-07
1.11475490163877e-07
1.11475490163877e-07
1.11475490163877e-07
1.11475490163877e-07
1.11475490163877e-07
1.11475490163877e-07
1.11475490163877e-07
1.11475490163877e-07
1.11475490163877e-07
1.11475490163877e-07
1.11475490163877e-07
1.11475490163877e-07
1.11475490163877e-07
1.11475490163877e-07
1.11475490163877e-07
1.11475490163877e-07
1.11475490163877e-07
1.11475490163877e-07
1.11475490163877e-07
1.11475490163877e-07
1.11475490163877e-07
1.11475490163877e-07
1.11475490163877e-07
1.11475490163877e-07
1.11475490163877e-07
1.11475490163877e-07
1.11475490163877e-07
1.11475490163877e-07
1.11475490163877e-07
1.11475490163877e-07
1.11475490163877e-07
1.11475490163877e-07
1.11475490163877e-07
1.11475490163877e-07
1.11475490163877e-07
1.11475490163877e-07
1.11475490163877e-07
1.11475490163877e-07
1.11475490163877e-07
1.11475490163877e-07
1.11475490163877e-07
1.11475490163877e-07
1.11475490163877e-07
1.11475490163877e-07
1.11475490163877e-07
1.11475490163877e-07
1.11475490163877e-07
1.11475490163877e-07
1.11475490163877e-07
1.11475490163877e-07
1.11475490163877e-07
1.11475490163877e-07
1.11475490163877e-07
1.11475490163877e-07
1.11475490163877e-07
1.11475490163877e-07
1.11475490163877e-07
1.11475490163877e-07
1.11475490163877e-07
1.11475490163877e-07
1.11475490163877e-07
1.11475490163877e-07
1.11475490163877e-07
1.11475490163877e-07
1.11475490163877e-07
1.11475490163877e-07
1.11475490163877e-07
1.11475490163877e-07
1.11475490163877e-07
1.11475490163877e-07
1.11475490163877e-07
1.11475490163877e-07
1.11475490163877e-07
1.11475490163877e-07
1.11475490163877e-07
1.11475490163877e-07
1.11475490163877e-07
1.11475490163877e-07
1.11475490163877e-07
1.11475490163877e-07
1.11475490163877e-07
1.11475490163877e-07
1.11475490163877e-07
1.11475490163877e-07
1.11475490163877e-07
1.11475490163877e-07
1.11475490163877e-07
1.11475490163877e-07
1.11475490163877e-07
1.11475490163877e-07
1.11475490163877e-07
1.11475490163877e-07
1.11475490163877e-07
1.11475490163877e-07
1.11475490163877e-07
1.11475490163877e-07
1.11475490163877e-07
1.11475490163877e-07
1.11475490163877e-07
1.11475490163877e-07
1.11475490163877e-07
1.11475490163877e-07
1.11475490163877e-07
1.11475490163877e-07
1.11475490163877e-07
1.11475490163877e-07
1.11475490163877e-07
1.11475490163877e-07
1.11475490163877e-07
1.11475490163877e-07
1.11475490163877e-07
1.11475490163877e-07
1.11475490163877e-07
1.11475490163877e-07
1.11475490163877e-07
1.11475490163877e-07
1.11475490163877e-07
1.11475490163877e-07
1.11475490163877e-07
1.11475490163877e-07
1.11475490163877e-07
1.11475490163877e-07
1.11475490163877e-07
1.11475490163877e-07
1.11475490163877e-07
1.11475490163877e-07
1.11475490163877e-07
1.06860442722181e-07
1.11475490163877e-07
1.11475490163877e-07
1.11475490163877e-07
1.11475490163877e-07
1.11475490163877e-07
1.11475490163877e-07
1.11475490163877e-07
1.11475490163877e-07
1.11475490163877e-07
1.11475490163877e-07
1.11475490163877e-07
1.11475490163877e-07
1.11475490163877e-07
1.11475490163877e-07
1.11475490163877e-07
1.11475490163877e-07
1.11475490163877e-07
1.11475490163877e-07
1.11475490163877e-07
1.11475490163877e-07
1.11475490163877e-07
1.11475490163877e-07
1.11475490163877e-07
1.11475490163877e-07
1.11475490163877e-07
1.11475490163877e-07
1.11475490163877e-07
1.11475490163877e-07
1.11475490163877e-07
1.11475490163877e-07
1.11475490163877e-07
1.11475490163877e-07
1.11475490163877e-07
1.11475490163877e-07
1.11475490163877e-07
1.11475490163877e-07
1.11475490163877e-07
1.11475490163877e-07
1.11475490163877e-07
1.11475490163877e-07
1.11475490163877e-07
1.11475490163877e-07
1.11475490163877e-07
1.11475490163877e-07
1.11475490163877e-07
1.11475490163877e-07
1.11475490163877e-07
1.11475490163877e-07
1.11475490163877e-07
1.11475490163877e-07
1.11475490163877e-07
1.11475490163877e-07
1.11475490163877e-07
1.11475490163877e-07
1.11475490163877e-07
1.11475490163877e-07
1.11475490163877e-07
1.11475490163877e-07
1.11475490163877e-07
1.60472831994768e-08
1.21958332793110e-08
1.11475490162452e-07
1.11475490163877e-07
1.11475490163877e-07
1.11475490163877e-07
1.11475490163877e-07
1.11475490163877e-07
1.11475490163877e-07
1.11475490163877e-07
1.11475490163877e-07
1.11475490163877e-07
1.11475490163877e-07
1.11475490163877e-07
1.11475490163877e-07
1.11475490163877e-07
1.11475490163877e-07
1.11475490163877e-07
1.11475490163877e-07
1.11475490163877e-07
1.11475490163877e-07
1.11475490163877e-07
1.11475490163877e-07
1.11475490163877e-07
1.11475490163877e-07
1.11475490163877e-07
1.11475490163877e-07
1.11475490163877e-07
1.11475490163877e-07
1.11475490163877e-07
1.11475490163877e-07
1.11475490163877e-07
1.11475490163877e-07
1.11475490163877e-07
1.11475490163877e-07
1.11475490163877e-07
1.11475490163877e-07
1.11475490163877e-07
1.11475490163877e-07
1.11475490163877e-07
1.11475490163877e-07
1.11475490163877e-07
1.11475490163877e-07
1.11475490163877e-07
1.11475490163877e-07
1.11475490163877e-07
1.11475490163877e-07
1.11475490163877e-07
1.11475490163877e-07
1.11475490163877e-07
1.11475490163877e-07
1.11475490163877e-07
1.11475490163877e-07
1.11475490163877e-07
1.11475490163877e-07
1.11475490163877e-07
1.11475490163877e-07
1.11475490163877e-07
1.11475490163877e-07
1.11475490163877e-07
1.11475490163877e-07
7.95988829481014e-09
1.20675684884555e-08
1.25512532453304e-08
1.23221565980159e-08
1.11475490163877e-07
1.11475490163877e-07
1.11475490163877e-07
1.11475490163877e-07
1.11475490163877e-07
1.11475490163877e-07
1.11475490163877e-07
1.11475490163877e-07
1.11475490163877e-07
1.11475490163877e-07
1.11475490163877e-07
1.11475490163877e-07
1.11475490163877e-07
1.11475490163877e-07
1.11475490163877e-07
1.11475490163877e-07
1.11475490163877e-07
1.11475490163877e-07
1.11475490163877e-07
1.11475490163877e-07
1.11475490163877e-07
1.11475490163877e-07
1.11475490163877e-07
1.11475490163877e-07
1.11475490163877e-07
1.11475490163877e-07
1.11475490163877e-07
1.11475490163877e-07
1.11475490163877e-07
1.11475490163877e-07
1.11475490163877e-07
1.11475490163877e-07
1.11475490163877e-07
9.02760022546693e-08
1.19690472816639e-07
8.21739619444830e-08
1.11475490163877e-07
1.11475490163877e-07
1.11475490163877e-07
1.11475490163877e-07
1.11475490163877e-07
1.11475490163877e-07
1.11475490163877e-07
1.11475490163877e-07
1.11475490163877e-07
1.11475490163877e-07
1.11475490163877e-07
1.11475490163877e-07
1.11475490163877e-07
1.11475490163877e-07
1.11475490163877e-07
1.11475490163877e-07
1.11475490163877e-07
1.11475490163877e-07
1.11475490163877e-07
1.11475490163877e-07
1.11475490163877e-07
1.11475490163877e-07
8.71157594464815e-09
1.54497563351470e-08
2.01490648757559e-08
1.63674410878998e-08
1.11475490163877e-07
1.11475490163877e-07
1.11475490163877e-07
1.11475490163877e-07
1.11475490163877e-07
1.11475490163877e-07
1.11475490163877e-07
1.11475490163877e-07
1.11475490163877e-07
1.11475490163877e-07
1.11475490163877e-07
1.11475490163877e-07
1.11475490163877e-07
1.11475490163877e-07
1.11475490163877e-07
1.11475490163877e-07
1.11475490163877e-07
1.11475490163877e-07
1.11475490163877e-07
1.11475490163877e-07
1.11475490163877e-07
1.11475490163877e-07
1.11475490163877e-07
1.11475490163877e-07
1.11475490163877e-07
1.11475490163877e-07
1.11475490163877e-07
1.11475490163877e-07
1.11475490163877e-07
3.14713484324855e-08
4.19210294674975e-08
3.60593469209202e-08
4.65920269410766e-08
1.05284357742058e-07
1.60906807189773e-07
1.24628459805904e-07
5.24560178744681e-08
6.82102239352529e-08
1.11475490163877e-07
1.11475490163877e-07
1.11475490163877e-07
1.11475490163877e-07
1.11475490163877e-07
1.11475490163877e-07
1.11475490163877e-07
1.11475490163877e-07
1.11475490163877e-07
1.11475490163877e-07
1.11475490163877e-07
1.11475490163877e-07
1.11475490163877e-07
1.11475490163877e-07
1.11475490163877e-07
1.11475490163877e-07
1.11475490163877e-07
1.11475490163877e-07
1.11475490163877e-07
6.39781838849273e-09
8.28656370970181e-09
1.41148299810490e-08
2.17310103660165e-08
3.05478822431885e-08
1.11475490163877e-07
1.11475490163877e-07
1.11475490163877e-07
1.11475490163877e-07
1.11475490163877e-07
1.11475490163877e-07
1.11475490163877e-07
1.11475490163877e-07
1.11475490163877e-07
1.11475490163877e-07
1.11475490163877e-07
1.11475490163877e-07
1.11475490163877e-07
1.11475490163877e-07
1.11475490163877e-07
1.11475490163877e-07
1.11475490163877e-07
1.11475490163877e-07
1.11475490163877e-07
1.11475490163877e-07
1.11475490163877e-07
1.11475490163877e-07
1.11475490163877e-07
1.11475490163877e-07
1.11475490163877e-07
1.11475490163877e-07
2.30877158080989e-08
1.34394696116575e-08
1.37266425103305e-08
2.08578007747621e-08
2.36481477128778e-08
2.05045934214856e-08
2.49222331348338e-08
3.83959724797463e-08
7.48846952434329e-08
7.33739683688915e-08
5.46059147004000e-08
5.07468485111768e-08
7.88332292169320e-08
1.15958005336990e-07
1.42028220128332e-07
1.11475490163877e-07
1.11475490163877e-07
1.11475490163877e-07
1.11475490163877e-07
1.11475490163877e-07
1.11475490163877e-07
1.11475490163877e-07
1.11475490163877e-07
1.11475490163877e-07
1.11475490163877e-07
1.11475490163877e-07
1.11475490163877e-07
1.11475490163877e-07
1.11475490163877e-07
1.11475490163877e-07
5.53515939483611e-09
6.49681120001509e-09
1.00063301162494e-08
1.23609196420997e-08
1.11463140513727e-07
1.11475490106678e-07
1.11475490163877e-07
1.11475490163877e-07
1.11475490163877e-07
1.11475490163877e-07
1.11475490163877e-07
1.11475490163877e-07
1.11475490163877e-07
1.11475490163877e-07
1.11475490163877e-07
1.11475490163877e-07
1.11475490163877e-07
1.11475490163877e-07
1.11475490163877e-07
1.11475490163877e-07
1.11475490163877e-07
1.11475490163877e-07
1.11475490163877e-07
1.11475490163877e-07
1.11475490163877e-07
1.11475490163877e-07
1.11475490163877e-07
1.11475490163877e-07
1.11475490163877e-07
1.11475490163877e-07
1.11475490163877e-07
3.87573304233253e-08
2.13584763135182e-08
7.51123229186628e-09
5.77236723261953e-09
7.45260715624692e-09
9.07816411725984e-09
8.86845432593936e-09
1.70326544761581e-08
1.87534193434725e-08
2.89056628783274e-08
5.23441849090026e-08
5.48586080074491e-08
4.22425731640650e-08
4.03310756841364e-08
4.45945384232051e-08
7.07775743034116e-08
7.28979930752630e-08
1.23345658904223e-07
8.49049366286201e-07
1.11475490163877e-07
1.11475490163877e-07
1.11475490163877e-07
1.11475490163877e-07
1.11475490163877e-07
1.11475490163877e-07
1.11475490163877e-07
1.11475490163877e-07
1.11475490163877e-07
1.11475490163877e-07
1.11475490163877e-07
5.61954981195678e-09
5.85701081042359e-09
6.89064795600462e-09
1.10587212715916e-08
1.51468889812872e-08
1.11475490120594e-07
1.11475490085858e-07
1.11475490163877e-07
1.11475490163877e-07
1.11475490163877e-07
1.11475490163877e-07
1.11475490163877e-07
1.11475490163877e-07
1.11475490163877e-07
1.11475490163877e-07
1.11475490163877e-07
1.11475490163877e-07
1.11475490163877e-07
1.11475490163877e-07
1.11475490163877e-07
1.11475490163877e-07
1.11475490163877e-07
1.11475490163877e-07
1.11475490163877e-07
1.11475490163877e-07
1.11475490163877e-07
1.11475490163877e-07
1.11475490163877e-07
1.11475490163877e-07
1.11475490163877e-07
1.11475490163877e-07
4.52060055350809e-08
3.02322125934625e-08
1.33887948084237e-08
5.29489246158074e-09
6.92298451406444e-09
8.18367202187556e-09
8.67179160709760e-09
9.06363117368776e-09
1.27292686860247e-08
1.60176928067135e-08
2.29349370366044e-08
3.26059915421468e-08
3.29508845916392e-08
2.77044553547363e-08
1.98433884717787e-08
2.17618073359610e-08
3.36884744444590e-08
5.92350203458164e-08
2.04108229166748e-08
3.03167094093518e-08
1.11475490163877e-07
1.11475490163877e-07
1.11475490163877e-07
1.11475490163877e-07
1.11475490163877e-07
1.11475490163877e-07
1.11475490163877e-07
1.11475490163877e-07
1.11475490163877e-07
1.11475490163877e-07
1.11475490163877e-07
7.56886519276466e-09
7.90285537294485e-09
7.32026393581044e-09
1.06484183258320e-08
1.56633206862596e-08
1.11475490139451e-07
1.11470495199101e-07
1.11475490163877e-07
1.11475490163877e-07
1.11475490163877e-07
1.11475490163877e-07
1.11475490163877e-07
1.11475490163877e-07
1.11475490163877e-07
1.11475490163877e-07
1.11475490163877e-07
1.11475490163877e-07
1.11475490163877e-07
1.11475490163877e-07
1.11475490163877e-07
1.11475490163877e-07
1.11475490163877e-07
1.11475490163877e-07
1.11475490163877e-07
1.11475490163877e-07
1.11475490163877e-07
1.11475490163877e-07
1.11475490163877e-07
1.11475490163877e-07
1.11475490163877e-07
5.82914121622424e-08
3.44704057578791e-08
1.41512363544787e-08
5.51405120227577e-09
7.62188787467501e-09
1.39633888857414e-08
1.25103273671364e-08
9.17451292251499e-09
2.01294495465462e-08
2.89149133728260e-08
2.43124203075324e-08
1.93290768644630e-08
2.34908106298764e-08
2.47382684900967e-08
2.33062008001399e-08
2.00119350703023e-08
2.30581833864445e-08
3.71277871252788e-08
4.65983103823919e-08
6.40732557923010e-08
7.71822218006952e-08
6.82084415209051e-08
1.11475490163877e-07
1.11475490163877e-07
1.11475490163877e-07
1.11475490163877e-07
1.11475490163877e-07
1.11475490163877e-07
7.73421562036709e-08
5.67799173647664e-08
5.72548507037460e-08
5.87845755019326e-08
1.20544398134524e-08
9.73934687058757e-09
7.18012877492348e-09
9.24381858836202e-09
1.34000165371346e-08
2.90367961882081e-08
1.11463517900472e-07
1.11475490163877e-07
1.11475490163877e-07
1.11475490163877e-07
1.11475490163877e-07
1.11475490163877e-07
1.11475490163877e-07
1.11475490163877e-07
1.11475490163877e-07
1.11475490163877e-07
1.11475490163877e-07
1.11475490163877e-07
1.11475490163877e-07
1.11475490163877e-07
1.11475490163877e-07
1.11475490163877e-07
1.11475490163877e-07
1.11475490163877e-07
1.11475490163877e-07
1.11475490163877e-07
1.11475490163877e-07
1.11475490163877e-07
1.11475490163877e-07
1.67691046782568e-07
5.78833896759979e-08
2.19869470513793e-08
8.65175859387625e-09
7.19442856468217e-09
8.84715475648934e-09
8.26824286277758e-09
8.72252448755898e-09
1.41162479337919e-08
2.31798132229180e-08
3.24005947121545e-08
2.93271594578828e-08
2.08600642668045e-08
2.20942652662151e-08
2.63378131350513e-08
2.48128545593587e-08
2.08124873970587e-08
2.09749149354983e-08
2.69568954508143e-08
2.90261111408113e-08
6.13518096189583e-08
5.39411480738114e-08
6.53371282380459e-08
4.54346334987978e-08
1.11475490163877e-07
8.64990105848346e-09
8.47881114494586e-09
1.11475490163877e-07
1.66224754498569e-08
7.02119755969210e-08
5.34842725980679e-08
5.94980765403004e-08
7.58838082643230e-08
1.36961497097373e-08
9.87908980600461e-09
6.87311950047115e-09
8.52722418969985e-09
1.16818975478016e-08
1.47546291697365e-08
4.12219249643176e-08
1.11475490163877e-07
1.11475490163877e-07
1.11475490163877e-07
1.11475490163877e-07
1.11475490163877e-07
1.11475490163877e-07
1.11475490163877e-07
1.11475490163877e-07
1.11475490163877e-07
1.11475490163877e-07
1.11475490163877e-07
1.11475490163877e-07
1.11475490163877e-07
1.11475490163877e-07
1.11475490163877e-07
1.11475490163877e-07
1.11475490163877e-07
1.11475490163877e-07
1.11475490163877e-07
1.11475490163877e-07
1.11475490163877e-07
3.53671886637603e-07
8.93500747123105e-08
4.03799514195337e-08
1.93367309502058e-08
9.75210891332366e-09
1.21903180526509e-08
1.68392798473751e-08
1.91269592330560e-08
1.51465132459344e-08
1.47195850645681e-08
1.92146037962546e-08
2.63364949354870e-08
2.81725631748167e-08
3.21697658638124e-08
3.69968863359785e-08
3.96456802656538e-08
2.82566024579935e-08
1.60548676018806e-08
1.18550542808497e-08
1.25573861012696e-08
3.03720237805471e-08
4.32402141060258e-08
5.56262580609876e-08
5.80483551057632e-08
3.86516630855710e-08
4.50107577134756e-08
8.72826986839017e-09
8.73601753298323e-09
1.14079484379418e-08
6.73885731421758e-07
1.36426685442367e-08
9.79227292373334e-09
5.86975370085093e-08
9.03612304447545e-08
8.54983602448075e-08
9.19745857152338e-09
7.58127305645169e-09
9.09326764722338e-09
1.12284877862996e-08
1.51491958208942e-08
1.11475485692954e-07
1.11475490163877e-07
1.11475490163877e-07
1.11475490163877e-07
1.11475490163877e-07
1.11475490163877e-07
1.11475490163877e-07
1.11475490163877e-07
1.11475490163877e-07
1.11475490163877e-07
1.11475490163877e-07
1.11475490163877e-07
1.11475490163877e-07
1.11475490163877e-07
1.11475490163877e-07
1.11475490163877e-07
1.11475490163877e-07
1.11475490163877e-07
1.11475490163877e-07
1.11475490163877e-07
1.11475490163877e-07
4.04967816467841e-07
9.60035160211420e-08
6.21063993775741e-08
3.82968793900082e-08
1.53282779347832e-08
1.02557969656603e-08
1.77437322870289e-08
2.25971773517885e-08
2.33457671078954e-08
2.71317592015578e-08
2.34173334110855e-08
2.32100906308861e-08
1.12870738530529e-08
1.16612190543873e-08
1.51574250779088e-08
1.82217975604372e-08
1.52198888317529e-08
1.07236551803089e-08
6.91694484427041e-09
4.97179971214859e-09
4.24480248864896e-09
4.28434182263142e-09
4.77159597506589e-09
3.55255580281255e-08
4.12680676000377e-08
2.90265043862018e-08
2.82208743544218e-08
6.36529140985974e-09
6.74756067491254e-09
7.29179343644731e-07
6.46393427914099e-07
6.16287495708494e-07
8.52369019039300e-09
4.30798841312445e-08
8.27382070575578e-08
9.35695249725142e-08
1.03648307436495e-08
8.09870078718099e-09
9.53851663306655e-09
1.04482381970215e-08
1.73278293106273e-08
3.02962735259538e-08
1.11475490163877e-07
1.11475490163877e-07
1.11475490163877e-07
1.11475490163877e-07
1.11475490163877e-07
1.11475490163877e-07
1.11475490163877e-07
1.11475490163877e-07
1.11475490163877e-07
1.11475490163877e-07
1.11475490163877e-07
1.11475490163877e-07
1.11475490163877e-07
1.11475490163877e-07
1.11475490163877e-07
1.11475490163877e-07
1.11475490163877e-07
1.11475490163877e-07
1.11475490163877e-07
1.11475490163877e-07
1.17217614122496e-07
7.83733183671736e-08
6.43553446264767e-08
3.04604297090622e-08
9.09568560235784e-09
1.23989343427510e-08
2.36618830344578e-08
2.86398328844914e-08
4.21392915144168e-08
3.96678746430929e-08
6.56624415396753e-08
4.41963636088383e-08
1.07697292968673e-08
9.31324054098475e-09
1.19400732499048e-08
1.72357272686879e-08
2.09725466283652e-08
1.76993272300877e-08
1.39778483725321e-08
1.08693445846679e-08
8.62943348848426e-09
7.41869116996897e-09
7.02596096939641e-09
7.32787622104876e-09
7.07298803284376e-09
5.75781709434537e-09
1.09871501963066e-08
1.04616793452325e-08
1.11142288176473e-06
8.87940631255801e-07
7.91967390796685e-07
2.77736681200747e-08
7.73123810826394e-09
7.56943679513570e-09
5.54186584775600e-08
8.24622197992992e-08
1.13168988234463e-08
8.35084175599023e-09
9.30565815635058e-09
1.07237021142425e-08
1.60925717288959e-08
9.55491993075836e-08
1.11475490163877e-07
1.11475490163877e-07
1.11475490163877e-07
1.11475490163877e-07
1.11475490163877e-07
1.11475490163877e-07
1.11475490163877e-07
1.11475490163877e-07
1.11475490163877e-07
1.11475490163877e-07
1.11475490163877e-07
1.11475490163877e-07
1.11475490163877e-07
1.11475490163877e-07
1.11475490163877e-07
1.11475490163877e-07
1.11475490163877e-07
1.11475490163877e-07
4.93967585295646e-07
2.03001135674319e-07
9.07392121085345e-08
7.38518230618467e-08
4.69555160586743e-08
1.29652972342090e-08
7.44106885752197e-09
1.44845148758802e-08
2.87035912957130e-08
3.62540483141431e-08
5.11018287951018e-08
6.15364432341539e-08
6.10614266085991e-08
6.16848771615337e-08
4.02298466582342e-08
8.37366925046159e-09
1.01820191298741e-08
1.59656435339122e-08
1.84409999308756e-08
1.93960507708349e-08
1.94980680135992e-08
1.61580066088298e-08
1.22559479124577e-08
9.88372901354184e-09
9.66228004592890e-09
1.08270988710015e-08
9.87116920644384e-09
6.85399334989000e-09
4.97489685586521e-09
4.10048345331074e-09
2.76491740624217e-07
8.83350517747367e-08
8.47315223640410e-07
7.10870684266368e-08
8.46538721798415e-09
7.25057118635173e-09
7.64768178922879e-09
5.34783073061038e-08
1.14541740445558e-08
9.06570209023981e-09
8.82446904092097e-09
1.22421242920655e-08
1.86895675613373e-08
4.58799198844139e-08
1.11475490163877e-07
1.11475490163877e-07
1.11475490163877e-07
1.11475490163877e-07
1.11475490163877e-07
1.11475490163877e-07
1.11475490163877e-07
1.11475490163877e-07
1.11475490163877e-07
1.11475490163877e-07
1.11475490163877e-07
1.11475490163877e-07
1.11475490163877e-07
1.11475490163877e-07
1.11475490163877e-07
1.11475490163877e-07
1.11475490163877e-07
1.11475490163877e-07
1.11475490163877e-07
1.28551320161357e-07
8.40356932571995e-08
2.34725917402250e-06
2.25010446739268e-08
8.17156194046318e-09
1.01240790783547e-08
1.97055743339003e-08
3.17396866999491e-08
4.57944908478173e-08
5.98282533907546e-08
7.31409702918059e-08
7.51344892928370e-08
5.75259086109219e-08
4.37487755428266e-08
3.29521204441760e-08
7.87689330304733e-09
1.24306911940097e-08
1.38985118625310e-08
1.46494970947201e-08
1.77241877135393e-08
1.82685875605848e-08
1.38074660750077e-08
9.16897324349208e-09
8.29258181358694e-09
8.94846484869790e-09
9.17438208817115e-09
8.45569920825336e-09
6.94131021444393e-09
5.40588755941623e-09
3.51575944926609e-07
3.75908241468530e-07
2.17451058379262e-08
5.74694314394841e-07
8.36107208208306e-09
7.58830779614082e-09
6.69904885304186e-09
9.27246542756676e-09
1.18492870703694e-08
9.26674446724606e-09
9.62827096615418e-09
1.49129732638889e-08
3.16003188723437e-08
7.48502807588460e-08
1.11475490163877e-07
1.11475490163877e-07
1.11475490163877e-07
1.11475490163877e-07
1.11475490163877e-07
1.11475490163877e-07
1.11475490163877e-07
1.11475490163877e-07
1.11475490163877e-07
1.11475490163877e-07
1.11475490163877e-07
1.11475490163877e-07
1.11475490163877e-07
1.11475490163877e-07
1.11475490163877e-07
1.11475490163877e-07
1.11475490163877e-07
1.11475490163877e-07
2.18702907970090e-07
1.32717344035459e-07
8.09824788735135e-08
4.10195056250819e-08
1.40568345111201e-08
9.22555734816138e-09
1.52223805343129e-08
3.19358199449302e-08
5.62192279994566e-08
5.11403725507166e-08
7.76659399054159e-08
8.90294572696694e-08
7.85843799407355e-08
6.47213224471078e-08
5.16583210756794e-08
4.91332418281685e-08
7.29214032485008e-09
8.86756592477283e-09
9.98133891119184e-09
1.08103023594808e-08
1.26332180542346e-08
1.64849644403501e-08
1.58443416057216e-08
1.16222176750110e-08
9.14306657043122e-09
7.92900275040138e-09
7.94266916377163e-09
8.98853330909745e-09
1.00882824775486e-08
8.96829164364534e-09
2.12105206994982e-08
3.00788356925773e-07
1.80737576519662e-08
5.89761791017326e-09
2.26685776268796e-07
1.35123526044203e-08
1.26946105896178e-07
8.55989096153627e-09
1.84492917818903e-08
6.15459465885152e-07
1.07994768243553e-08
1.82864297989669e-08
4.25384411291971e-08
1.11475490162670e-07
1.11475490163877e-07
1.11475490163877e-07
1.11475490163877e-07
1.11475490163877e-07
1.11475490163877e-07
1.11475490163877e-07
1.11475490163877e-07
1.11475490163877e-07
1.11475490163877e-07
1.11475490163877e-07
1.11475490163877e-07
1.11475490163877e-07
1.11475490163877e-07
1.11475490163877e-07
1.11475490163877e-07
1.11475490163877e-07
1.11475490163877e-07
2.91686172591077e-07
2.67910467918786e-07
1.64095057104247e-07
9.91906725697513e-08
4.32201246945564e-08
1.89323309250089e-08
1.28478220618530e-08
1.64323935178870e-08
3.56591334817608e-08
6.22251523795730e-08
6.47005678390187e-08
1.06503718833821e-07
1.26444728444550e-07
1.05202333814125e-07
7.82894212322974e-08
5.92704412752074e-08
5.46422922034153e-08
8.35717990070755e-09
7.27537211593931e-09
7.54394460295775e-09
8.51712543030287e-09
1.04214218446431e-08
1.36312865045390e-08
1.59352493639148e-08
1.52238574506968e-08
1.23140476120749e-08
9.61708105806768e-09
8.28638277022421e-09
8.75858856448552e-09
1.11509473521947e-08
1.30759549044244e-08
1.09558088423701e-08
7.87417195893513e-09
6.77333244591616e-09
5.60726687868810e-07
1.25426896045610e-07
1.20846696453069e-08
1.62495918757122e-08
6.41055706361888e-07
1.74366655816486e-08
4.08816778335300e-08
1.37641519519648e-08
1.71764971821215e-08
2.61569542951967e-08
1.11468644368705e-07
1.11475490163877e-07
1.11475490163877e-07
1.11475490163877e-07
1.11475490163877e-07
1.11475490163877e-07
1.11475490163877e-07
1.11475490163877e-07
1.11475490163877e-07
1.11475490163877e-07
1.11475490163877e-07
1.11475490163877e-07
1.11475490163877e-07
1.11475490163877e-07
1.11475490163877e-07
1.11475490163877e-07
1.11475490163877e-07
1.74279294886455e-07
2.38668902444778e-07
2.49268053044145e-07
2.23148402645631e-07
1.62844430760740e-07
8.57671888762079e-08
3.53037684580821e-08
1.65084362064080e-08