/*--------------------------------*- C++ -*----------------------------------*\
| =========                 |                                                 |
| \\      /  F ield         | OpenFOAM: The Open Source CFD Toolbox           |
|  \\    /   O peration     | Version:  2.4.0                                 |
|   \\  /    A nd           | Web:      www.OpenFOAM.org                      |
|    \\/     M anipulation  |                                                 |
\*---------------------------------------------------------------------------*/
FoamFile
{
    version     2.0;
    format      ascii;
    class       volScalarField;
    object      ktrans;
}
// * * * * * * * * * * * * * * * * * * * * * * * * * * * * * * * * * * * * * //

dimensions      [0 0 -1 0 0 0 0];

internalField   nonuniform List<scalar>
6448
(
0
0
0
0
0
0
0
0
0
0
0
0
0
0
0
0
0
0
0
0
0
0
0
0
0
0
0
0
0
0
0
0
0
0
0
0
0
0
0
0
0
0
0
0
0
0
0
0
0
0
0
0
0
0
0
0
0
0
0
0
0
0
0
0
0
0
0
0
0
0
0
0
0
0
0
0
0
0
0
0
0
0
0
0
0
0
0
0
0
0
0
0
0
0
0
0
0
0
0
0
0
0
0
0
0
0
0
0
0
0
0
0
0
0
0
0
0
0
0
0
0
0
0
0
0
0
0
0
0
0
0
0
0
0
0
0
0
0
0
0
0
0
0
0
0
0
0
0
0
0
0
0
0
0
0
0
0
0
0
0
0
0
0
0
0
0
0
0
0
0
0
0
0
0
0
0
0
0
0
0
0
0
0
0
0
0
0
0
0
0
0
0
0
0
0
0
0
0
0
0
0
0
0
0
0
0
0
0
0
0
0
0
0
0
0
0
0
0
0
0
0
0
0
0
0
0
0
0
0
0
0
0
0
0
0
0
0
0
0
0
0
0
0
0
0
0
0
0
0
0
0
0
0
0
0
0
0
0
0
0
0
0
0
0
0
0
0
0
0
0
0
0
0
0
0
0
0
0
0
0
0
0
0
0
0
0
0
0
0
0
0
0
0
0
0
0
0
0
0
0
0
0
0
0
0
0
0
0
0
0
0
0
0
0
0
0
0
0
0
0
0
0
0
0
0
0
0
0
0
0
0
0
0
0
0
0
0
0
0
0
0
0
0
0
0
0
0
0
0
0
0
0
0
0
0
0
0
0
0
0
0
0
0
0
0
0
0
0
0
0
0
0
0
0
0
0
0
0
0
0
0
0
0
0
0
0
0
0
0
0
0
0
0
0
0
0
0
0
0
0
0
0
0
0
0
0
0
0
0
0
0
0
0
0
0
0
0
0
0
0
0
0
0
0
0
0
0
0
0
0
0
0
0
0
0
0
0
0
0
0
0
0
0
0
0
0
0
0
0
0
0
0
0
0
0
0
0
0
0
0
0
0
0
0
0
0
0
0
0
0
0
0
0
0
0
0
0
0
0
0
0
0
0
0
0
0
0
0
0
0
0
0
0
0
0
0
0
0
0
0
0
0
0
0
0
0
0
0
0
0
0
0
0
0
0
0
0
0
0
0
0
0
0
0
0
0
0
0
0
0
0
0
0
0
0
0
0
0
0
0
0
0
0
0
0
0
0
0
0
0
0
0
0
0
0
0
0
0
0
0
0
0
0
0
0
0
0
0
0
0
0
0
0
0
0
0
0
0
0
0
0
0
0
0
0
0
0
0.00599945555289060
0.00842318875763534
0.00735436336853433
0.00850141977058693
0.00733333333333333
0.00579333333333333
0.00425333333333333
0.00266562995518040
0.00171612809555875
0
0
0
0
0
0
0
0
0
0
0
0
0
0
0
0
0
0
0
0
0
0
0
0
0
0
0
0
0
0
0
0
0
0
0
0
0
0
0
0
0
0
0
0
0
0
0
0
0
0
0.00429582516204982
0.00287025985333442
0.00259110832451435
0.00318062509402080
0.00326443341617032
0.00245171779366248
0.00242021538439288
0.00616772913266442
0.00720159235746910
0.00584198219430505
0.00324797445520828
0.00189792674997325
0.00250532014189733
0.00232383990674138
0.00177196488566828
0
0
0
0
0
0
0
0
0
0
0
0
0
0
0
0
0
0
0
0
0
0
0
0
0
0
0
0
0
0
0
0
0
0
0
0
0
0
0
0
0
0
0
0
0
0
0.00495313795525942
0.00337298886265252
0.000899989153139448
0.000216219678627022
0.000267279960572850
0.000537665441177803
0.000537107505000022
0.000516264479936337
0.00271077601807255
0.00266516143912388
0.00367080273941365
0.00337773888844460
0.00234868992158388
0.00199215470507503
0.00162824242671120
0.000818076507699342
0.000894229373161875
0.00370443099081342
0.00439681213178583
0
0
0
0
0
0
0
0
0
0
0
0
0
0
0
0
0
0
0
0
0
0
0
0
0
0
0
0
0
0
0
0
0
0
0
0
0
0
0
0
0
0
0.00472070470777647
0.00295894992312115
0.00116046402795555
2.18420373173733e-06
0
0
0
0.000119533442474297
0.000571493581096448
0.00112680452508822
0.00149322031973903
0.00207837064093050
0.00234351480210960
0.00201850741088552
0.00129165052385551
0.00117276340100362
0.00158969058258609
0.00262938782750385
0
0
0
0
0
0
0
0
0
0
0
0
0
0
0
0
0
0
0
0
0
0
0
0
0
0
0
0
0
0
0
0
0
0
0
0
0
0
0
0
0
0
0
0.00479505178747698
0.00329981724702912
0.00110754091267477
9.11332899826957e-07
0
0
0
6.79641867606500e-05
0.000905085567553980
0.00114180665754957
0.00126390394123492
0.00109122391903344
0.00160435918228533
0.00229112727398148
0.00222869263504992
0.00186448583154702
0.00196627618074007
0.00248471233083698
0.00263384949072785
0.000967904887422955
0.000938255265218505
0.000824250019003865
0
0
0
0
0
0
0.00182492612542148
0.00126516612060619
0.00106459057460981
0.000937731824054022
0
0
0
0
0
0
0
0
0
0
0
0
0
0
0
0
0
0
0
0
0
0
0
0
0
0
0
0
0
0.00705743146143632
0.00445809435815723
0.00193680651164432
0.000318628371241012
0.000136622358606143
0.000158732844032789
0
5.67108262836790e-05
0.000674899679408528
0.00126169497835368
0.00151434594584245
0.00137366710200798
0.000990122065094368
0.00133933959204059
0.00200747242588353
0.00218252195608082
0.00209091947700357
0.00205213588568353
0.00210642844242010
0.00176712205908480
0.00112262637520485
0.00106334890253180
0.00108906268787370
0.00281851016330285
0
0
0
0
0
0.00144352874289671
0.00116824308922653
0.00115749094450033
0.00123200376936120
0
0
0
0
0
0
0
0
0
0
0
0
0
0
0
0
0
0
0
0
0
0
0
0
0
0
0
0
0.00736399317022408
0.00523651891366980
0.00334470981996230
0.00139825718109199
0.000230479098503273
0.000357887649466518
0.000657011561027775
0.00126319915934308
0.000932850401589310
0.000729639215915018
0.000824081507344438
0.00100295530766386
0.00105431295476208
0.00116140591871373
0.00138781145347148
0.00173524289892392
0.00172927472853368
0.00163052159867416
0.00133500777307829
0.00104130571496254
0.000755584771658647
0.000970116780820107
0.00122102724646363
0.00128327400644412
0.00270028191837837
0.00312103819252078
0
0
0
0.00225307856910025
0
0
0.00147308951260348
0.00188738828484090
0.00159863415560588
0
0
0
0
0
0
0
0
0
0
0
0
0
0
0
0
0
0
0
0
0
0
0
0
0
0
0.00710309903589887
0.00484203837337407
0.00372125986270832
0.00215262691110297
0.000789171033483152
0.000502954333807710
0.00118363284592815
0.00128854062855834
0.00122530482568289
0.00204287445502405
0.00126138584390053
0.000797340486907583
0
0
0
0
0
0
0
0
0
0
0
0.000931944351724092
0.00102385892869687
0.00122809959370752
0.00247965710491102
0
0
0.00411221713480742
0.00297052491558913
0.00255918481550040
0
0.00128178938467721
0.00218556023647145
0.00202763256644987
0
0
0
0
0
0
0
0
0
0
0
0
0
0
0
0
0
0
0
0
0
0
0
0
0
0
0.00571789163027242
0.00464267007372205
0.00331543953218163
0.00141152741474139
0.000415284603705740
0.000867770936369747
0.00176975353838343
0.00137857298864643
0.00133297267498076
0.00178798235222885
0.00312701238020465
0.00179033975160792
0
0
0
0
0
0
0
0
0
0
0
0
0
0
0.000875787016614120
0.00103730315452811
0.00709941838463412
0.00427987217269885
0.00305106633645948
0
0
0
0.00188441451571292
0.00240585034844300
0
0
0
0
0
0
0
0
0
0
0
0
0
0
0
0
0
0
0
0
0
0
0
0
0.0106328196369343
0.00815655661874830
0.00656411765591690
0.00502644440882973
0.00227350449537442
0.000687375014906500
0.000308406553500610
0.00110023790058379
0.00210793202366663
0.00187401397776160
0.00181471822337453
0.00201098538721585
0.00232494670571577
0.00284878510746217
0.00230840963702102
0
0
0
0
0
0
0
0
0
0
0
0
0
0
2.75829293603397e-05
0.00616456043180873
0.00428155563332833
0.00340993234201787
0
0
0
0
0.00191424235369788
0
0
0
0
0
0
0
0
0
0
0
0
0
0
0
0
0
0
0
0
0
0
0
0
0
0.00852326146900987
0.00711645114739445
0.00812810564286217
0.00143344190150112
0.000358621143375160
0.000656633360161705
0.00160733495171490
0.00200620724799905
0.00244384693004948
0.00260941384989262
0.00248206006824203
0.00232674680147213
0.00217490531761393
0.00240462233587235
0.00211722445963603
0
0
0
0
0
0
0
0
0
0
0
0
0
0
0.00505370749605955
0.00535659924718513
0
0.00336447520615895
0
0
0
0
0
0
0
0
0
0
0
0
0
0
0
0
0
0
0
0
0
0
0
0
0
0
0
0
0.0103590906922862
0.00951392698861885
0.00538842084957675
0.00229942580665230
0.000851974586158250
0.000452412554129570
0.00123779120264155
0.000839930998524145
0.00120578755099086
0.00245186818893268
0.00358897474964498
0.00348917246634072
0.00276492564314683
0.00247119669698997
0.00252577497866687
0.00267477211324513
0
0
0
0
0
0
0
0
0
0
0
0
0
0
0
0.00468985928215907
0
0
0.00369859125940397
0
0.00353622516452312
0
0
0.00314672195201392
0
0
0
0
0
0
0
0
0
0
0
0
0
0
0
0
0
0
0
0
0
0.0113457462347011
0.0120766413775093
0.00840591047718487
0.00396835177134697
0.00151470056863798
0.000900380385817425
0.000759353438454107
0.000837287277570963
0.000928753998247238
0.00133348147068214
0.00204275939601483
0.00403684908419258
0.00392682783314067
0.00335491733917315
0.00302680409263455
0.00256412350989893
0.00262608011691595
0
0
0
0
0
0
0
0
0
0
0
0
0
0
0
0
0
0.00396010032327708
0.00340089267945088
0
0
0.00381044587342607
0
0
0
0
0
0
0
0
0
0
0
0
0
0
0
0
0
0
0
0
0
0
0.00910145129744685
0.00993204385112590
0.0105100287628572
0.00753287984251220
0.00420944243256822
0.00213026499129823
0.000967305869984788
0.000612755064372728
0.000554671304619418
0.000864615873685655
0.00138402866888410
0.00204798384360785
0.00284624399599485
0.00290047512263092
0.00256288555497442
0.00234663055296383
0.00242240882710145
0
0
0
0
0
0
0
0
0
0
0
0
0
0
0
0
0
0
0
0.00375009923849808
0.00267661542239228
0
0.00389038542322918
0.00356095930193128
0
0
0
0
0
0
0
0
0
0
0
0
0
0
0
0
0
0
0
0
0
0.00850423050396980
0.00907506566116892
0.00812461829282527
0.00675307836132373
0.00476749207477948
0.00353529276491792
0.00179979153808392
0.000784811552342628
0.000568707238251892
0.00109230360825125
0.00183894655949707
0.00185511274119157
0.00177159290147283
0.00174211570292113
0.00196589008198002
0
0
0
0
0
0
0
0
0
0
0
0
0
0
0
0
0
0
0
0
0
0
0.00290105278814618
0
0
0
0
0
0
0
0
0
0
0
0
0
0
0
0
0
0
0
0
0
0
0
0.0100163238666921
0.00984842977896667
0.00810975205584223
0.00598778375738012
0.00464272858394632
0.00448378540671785
0.00461756583109832
0.00302273775956942
0.00138078055160636
0.00111145582010845
0.00187887371670000
0.00209878826033518
0.00151718674094231
0.00122373136833461
0.00138665853386377
0.00196746140711162
0.00235506390792402
0
0
0
0
0
0
0
0
0
0
0
0
0
0
0
0
0
0
0
0
0
0
0
0
0
0
0
0
0
0
0
0
0
0
0
0
0
0
0
0
0
0
0
0
0.00983405174036717
0.0108402444571604
0.0100110339961956
0.00658152639759367
0.00395751057178883
0.00296102239516065
0.00357412979944008
0.00430843113478613
0.00316005390289550
0.00202374077164992
0.00202163344633382
0.00238864399118080
0.00217535614039715
0.00157969545863349
0.00173271048569490
0
0.00229636268489808
0.00266458844785533
0.00275385335065447
0
0
0
0
0
0
0
0
0
0
0
0
0
0
0
0
0
0
0
0
0
0
0
0
0
0
0
0
0
0
0
0
0
0
0
0
0
0
0
0
0
0
0
0.00851443211320307
0.00906515468639620
0.00786996386744082
0.00499639493310387
0.00269798711988830
0.00188627085151778
0.00215230298339082
0.00265048257468627
0.00228713172347497
0.00197948521705480
0.00228191516343255
0.00266206760577313
0.00253889160027298
0.00249555262485678
0.00268846940435767
0.00292915876988450
0.00308537641902028
0.00297816017905940
0.00264056826009543
0.00234284274458778
0
0
0
0
0
0
0
0
0
0
0
0
0
0
0
0
0
0
0
0
0
0
0
0
0
0
0
0
0
0
0
0
0
0
0
0
0
0
0
0
0
0.00544113700794647
0.00789314322898020
0.00820223642878525
0.00619874297572287
0.00389944319213738
0.00262165716920462
0.00171313710881927
0.00124325881769386
0.00114517844196331
0.00128479876362999
0.00190397961308482
0.00251676020726708
0.00321157761344742
0.00345694364730543
0.00379131372386743
0.00401196737438027
0.00385258636154977
0.00358485660109918
0.00308688730204960
0.00248786465889112
0.00198288153204463
0
0
0
0
0
0
0
0
0
0
0
0
0
0
0
0
0
0
0
0
0
0
0
0
0
0
0
0
0
0
0
0
0
0
0
0
0
0
0
0
0
0.00671217797204797
0.00867687020170552
0.00798371830650795
0.00535164193450973
0.00342788935036000
0.00290010320068220
0.00198912616915555
0.000978664259335240
0.00101984768223604
0.00162928412453287
0.00223812991953655
0.00273068507500997
0.00315530459514472
0.00399964746563160
0.00490260689168082
0.00537186024674025
0.00506788132974637
0.00452648378552722
0.00400971124175718
0.00273393720784575
0.00186913837643068
0
0
0
0
0
0
0
0
0
0
0
0
0
0
0
0
0
0
0
0
0
0
0
0
0
0
0
0
0
0
0
0
0
0
0
0
0
0
0
0
0.00619973250517127
0.00735541377899195
0.00901172969988043
0.00734487296484812
0.00462244641646827
0.00352303558793628
0.00325769849407403
0.00199630670144312
0.000710843012719187
0
0.00138647085703418
0.00281411943219380
0.00231046225780850
0.00187316370946135
0.00277864573174593
0.00414194767516560
0.00543380252884055
0.00600638339381532
0.00575769493719102
0.00515374316422073
0.00345830424653592
0.00191936346675762
0.00126480759948126
0
0
0
0
0
0
0
0
0
0
0
0
0
0
0
0
0
0
0
0
0
0
0
0
0
0
0
0
0
0
0
0
0
0
0
0
0
0
0.00390801421096078
0.00533689099655102
0.00794781342771537
0.00806646817223910
0.00613324840606177
0.00407316259219938
0.00365951128467193
0.00331160689562840
0.00160438217191438
0
0
0.00137113311034669
0.00217609062664333
0.00142557875886822
0.00108072427624116
0.00130023341877304
0.00235039091038857
0.00404633654824630
0.00538920216103823
0.00590841581726045
0.00545242316282578
0.00359444464783792
0.00191020171964150
0.00114616474953541
0
0
0
0
0
0
0
0
0
0
0
0
0
0
0
0
0
0
0
0
0
0
0
0
0
0
0
0
0
0
0
0
0
0
0
0
0
0
0.00440720071617010
0.00625202766356150
0.00799546004474802
0.00680629349341178
0.00503908337294270
0.00368473527557052
0.00330685721029468
0.00265943317579637
0.00121040531314810
0
0
0.00135989156185735
0.00164268274183981
0.00116392381376208
0.000924643183204332
0.000980983701643522
0.00150046168274784
0.00242051471719888
0.00408311188336015
0.00522106071259885
0.00471545905206225
0.00290244931059253
0.00162493656193737
0.000988758649490533
0
0
0.00179369299463603
0
0
0
0
0
0
0
0
0
0
0
0
0
0
0
0
0
0
0
0
0
0
0
0
0
0
0
0
0
0
0
0
0
0
0
0.00504326557453018
0.00721092955532158
0.00753960122517615
0.00618065179417423
0.00461235474185972
0.00330459139389295
0.00248488914992913
0.00163316791742980
0.000719031466686158
0
0
0.00139663952605942
0.00149155342099308
0.00126674007529125
0.000958310030078437
0.000888494993894260
0.00125729932986240
0.00201979275266652
0.00331934203296193
0.00404225629099407
0.00345386058545645
0.00240687143840688
0.00141781755638401
0.000874057681005757
0
0
0.00179370992245142
0.00164641131186999
0.00115280037473075
0
0
0
0
0
0
0
0
0
0
0
0
0
0
0
0
0
0
0
0
0
0
0
0
0
0
0
0
0
0
0
0
0.00438813861377930
0.00531386233820172
0.00672921751279898
0.00673359132104152
0.00621659448849570
0.00554667660647043
0.00414281849394212
0.00249413151006312
0.00124582719121747
0.000695247892061380
0.00109329895094324
0.00178105741545185
0.00175948811388862
0.00147507215356767
0.00143490558881355
0.00121463151609737
0.00118502445431315
0.00147725151268471
0.00204932247419173
0.00291310876594770
0.00326468671999743
0.00292613004833167
0.00237833336697992
0.00184903103817072
0.00121135131282288
0
0
0
0.00190399788243800
0.00179517657903193
0
0
0
0
0
0
0
0
0
0
0
0
0
0
0
0
0
0
0
0
0
0
0
0
0
0
0
0
0
0
0
0
0.00676649435970077
0.00598707798962955
0.00675335147045627
0.00617700483324730
0.00576181000687918
0.00621389147753482
0.00559944284052592
0.00363768705924970
0.00153706323757101
0.000604021235880268
0.00127852490174887
0.00189879847987720
0.00168601718255077
0.00161425329243933
0.00161403462157585
0.00151000060521442
0.00163437547593901
0.00215545005266618
0.00237795023437722
0.00248001633042015
0.00280048749906660
0.00283557989145523
0.00288844216232460
0.00266559935423830
0.00167328195484885
0
0
0
0.00215479170848758
0.00307730847361532
0.00284356465354115
0
0
0
0
0
0
0
0
0
0
0
0
0
0
0
0
0
0
0
0
3.84894610806730e-06
0
0
0
0
0
0
0
0
0
0.00314421749032025
0.00638463103895128
0.00684709059609038
0.00679669733246562
0.00570545835825935
0.00548498864776998
0.00614583057763837
0.00626237596990403
0.00451158073300665
0.00173448469644742
0.000641129470602562
0.000791334731036843
0.00155465100813165
0.00135146459900810
0.00155508261253930
0.00150058538067911
0.00170952089470515
0.00213877819081043
0.00727280320299018
0.00651055942202065
0.00239346074414158
0.00233757388486628
0.00293196989094102
0.00418487774989062
0.00421383415427393
0.00242622802915940
0.00118416656064660
0
0
0.00309882124947667
0.00459299761032433
0.00462765331779878
0
0
0
0
0
0
0
0
0
0
0
0
0
0
0
0
0
0
0
0
0
0
0
0
0
0
0
0
0
0
0.00375013364630133
0.00684113807084390
0.00733097125599792
0.00682276131416947
0.00569032688956482
0.00568275085966373
0.00629770402132427
0.00629422075506498
0.00465121432866582
0.00195184559918252
0.000627430346549603
0.000552208550311383
0.00133249503334655
0.00146945479413242
0.00146560561078541
0.00129822585026280
0.00148113990088957
0.00242132761716432
0.00829110921635755
0.00715787629377320
0.00543561296179045
0.00274715524538442
0.00348795049667810
0.00473172784005195
0.00464615948259717
0.00296549093769408
0.00185468892997885
0.00124745332959602
0
0.00340459093529342
0.00605342065741833
0.00594531839276383
0.00328925718811910
0
0
0
0
0
0
0
0
0
0
0
0
0
0
0
0
0
0
4.90369581868998e-06
1.05108614251793e-05
0
0
0
0
0
0
0
0
0.00441320769419457
0.00533481706719462
0.00791880039929083
0.00779219350188480
0.00662602568625670
0.00592428878442550
0.00577499931471572
0.00585202072009375
0.00550672846561658
0.00397463586680500
0.00183873496663392
0.000436642198956970
0.000592059481840235
0.00140146978513893
0.00148225037066566
0.00139838637876052
0.00105333774038842
0.00131375916569085
0.00231046855341092
0.00345779901687062
0.00802223627108803
0.00589259404662625
0.00361261315357830
0.00371025038875895
0.00375863341772807
0.00339048705446328
0.00304588609324528
0.00218490231019907
0.00106859752429145
0.00132399736395405
0.00300354556545560
0.00721077691296338
0.00735013852903087
0.00483388001976475
0
0
0
0
0
0
0
0
0
0
0
0
0
0
0
0
0
0
2.69204958955833e-06
0
0
0
0
0
0
0
0
0
0.00689521079404073
0.00716868842342733
0.00851405585139368
0.00741547708980748
0.00666509884299722
0.00633107326172187
0.00602551902061098
0.00539774573083038
0.00449971383364202
0.00305774631971025
0.00138414805585222
0.00379811867224373
0.000806167932136153
0.00145780849188189
0.00135056625487935
0.00124550331869838
0.000937348520375152
0.00116119642432029
0.00228622482196593
0.00350216538381135
0.00347569955537737
0.00357501898421665
0.00347832258728855
0.00307666502913922
0.00266389097871775
0.00249139968955027
0.00254916002503758
0.00238516834399063
0.00144956844598843
0.00137620383162410
0.00288962253621962
0.00783274429611850
0.00852556006129580
0.00645542542004510
0
0
0
0
0
0
0
0
0
0
0
0
0
0
0
0
0
0
0
0
0
0
0
0
0
0
0
0.00728176182754967
0.00732350484418260
0.00734332403272413
0.00725766057901987
0.00769190305434653
0.00687621391843575
0.00668532544249495
0.00606540330026205
0.00476878869133668
0.00336421348411882
0.00221201909573462
0.00100729524872600
0.00404663621468175
0.00120236775567854
0.00217660089918163
0.00133716741238562
0.00103409358053519
0.000669100339325807
0.000970236300836243
0.00221566901006053
0.00328737619106898
0.00328275081059360
0.00296575826271617
0.00239634157782927
0.00201038531369812
0.00190682676357407
0.00208306541809390
0.00242175735072158
0.00193847549939280
0.00186118253201685
0.00210359781124602
0.00365120523598770
0.00839926354726457
0.00868796355029610
0.00715125345474158
0
0
0
0
0
0
0
0
0
0
0
0
0
0
0
0
0
0
0
0
0
0
0
0
0
0
0
0.00686733227821083
0.00661319280576620
0.00674072549170503
0.00680386456588795
0.00676194349278207
0.00680271542505217
0.00649874245806668
0.00554845397493205
0.00379219141595553
0.00248224055163018
0.00180493005496583
0.000966957269869522
0.00427470574409918
0.00163693607685397
0.00193775509752790
0.00122157699764679
0.00127578942397001
0.000973683922614055
0.00114677023009265
0.00198833823661688
0.00272298352034093
0.00278232641905840
0.00226891735629373
0.00169171470906965
0.00166247149923318
0.00178427596466460
0.00211630499312853
0.00275230169960972
0.00232120448017420
0.00175333521543142
0.00216379426468498
0.00607999059495237
0.00835968656348008
0.00806801883637125
0.00152461975708532
3.54428676206748e-06
0
0
0
0
0
0
0
0
0
0
0
0
0
0
0
0
0
0
0
0
0
0
0
0
0
0.00697084865277472
0.00731675159522562
0.00687615742780765
0.00661876446413342
0.00767175758205002
0.00681149533210740
0.00662826876246633
0.00613006192832962
0.00502117805548050
0.00349528437725730
0.00238114560177873
0.00165005812716535
0.00104123537579568
0
0.00164967657050517
0.00201471884357523
0.00160079451976418
0.00155359053171102
0.00132796200476965
0.00140020290123230
0.00183817147648868
0.00238874981174077
0.00271136729084492
0.00253025921610872
0.00211717860715962
0.00170719202224537
0.00165779058626741
0.00193030411964477
0.00231756474608810
0.00243713940332300
0.00303275747961245
0.00475704865451362
0.00736751769446728
0.00772782536563797
0.00741203966062750
0.00659242434783035
7.89177881719493e-05
0
0
0
0
0
0
0
0
0
0
0
0
0
0
0
0
0
0
0
0
0
0
0
0
0
0.00819035143148230
0.00842835661822242
0.00732289776086385
0.00704730961465257
0.00675480616703070
0.00645086756566390
0.00644882249733025
0.00610685115897498
0.00502760202359327
0.00382491411060757
0.00283181082900003
0.00191926672986995
0.00121607349586830
0.000990026162742437
0.00128921003465022
0.00139949871314079
0.00186244167052758
0.00180717194070318
0.00162577224549013
0.00155653962854784
0.00177262295224918
0.00239805246078253
0.00297464915255898
0.00339298980623292
0.00335228802412678
0.00260645516291847
0.00189814429753423
0.00139851561721387
0.00150917123149459
0.00249777229750548
0.00481543768527452
0.00646928156686930
0.00746378664771300
0.00788916870384325
0.00748940857738987
0.00686553353357617
0.000752947169414605
2.09097470271643e-05
0
0
0
0
0
0
0
0
0
0
0
0
0
0
0
0
0
0
0
0
0
0
0
0.00685117927609893
0.00850140306192138
0.00902958830979283
0.00781505537029760
0.00722186997104007
0.00644562170871738
0.00575821309797477
0.00583680139707078
0.00586828087497015
0.00818140902703758
0.00444987364007685
0.00346233092724060
0.00236814168224840
0.00156561615387034
0.00133407883041371
0.00148329506504045
0.00170874041137548
0.00185676612065420
0.00182147130768898
0.00162656866627256
0.00145298385593361
0.00164195666559136
0.00227080651158805
0.00278723109669730
0.00331587917598570
0.00377000723638733
0.00323924943262582
0.00204158248351400
0.00106665352368451
0.000892909391828733
0.00242446185344558
0.00319621285610168
0.00582333420258848
0.00640130376541617
0.00642492177169835
0.00838935057787033
0.00725130144608203
0.000542659301112807
0.000320858893474512
0
0
0
0
0
0
0
0
0
0
0
0
0
0
0
0
0
0
0
0
0
0
0
0.00795229864209793
0.00975993176011440
0.00878934935556737
0.00743217651413938
0.00664529444877813
0.00571887980079835
0.00508835718314395
0.00515116297548198
0.00894266671623037
0.00830853526520193
0.00473033346653833
0.00380353388139520
0.00271658369185838
0.00204270979625927
0.00185448465776598
0.00182847223946062
0.00192165499640335
0.00170256464029537
0.00152289158553048
0.00131754763236319
0.00129421107631886
0.00162017513095111
0.00173434448778172
0.00188511394572597
0.00203348402462375
0.00276087068247237
0.00266213759903553
0.00149551289839538
0.00113106014528371
0.000914799095012637
0.00165908729293273
0.00293114047123567
0.00423965971933063
0.00635609567533292
0.00758522503722550
0.00916534770966037
0.00726755940713037
0.000236602763755592
0.000515908961937210
0.000738739818904297
0
0
0
0
0
0
0
0
0
0
0
0
0
0
0
0
0
0
0
0
0
0
0.00882104691977960
0.00991884749484670
0.00771840329838248
0.00643352078095055
0.00558738420170258
0.00492942548684780
0.00463578963614233
0.00478886330774490
0.00879869170421505
0.00466245725595295
0.00387343845146482
0.00315080845639435
0.00256753473052895
0.00216387849891287
0.00198518421872985
0.00198225279384765
0.00200647243421692
0.00167710584155712
0.00129702830743000
0.00111204998112438
0.00128537042054090
0.00164331943677975
0.00143792128944903
0.00132016805311040
0.00148069790108157
0.00174898763637567
0.00167240114091718
0.00142133342713317
0.00110771556539398
0.00113109226566050
0.000867485007270735
0.00293547578034917
0.00399291240007127
0.00783392958135143
0.00960847338859007
0.00923650848279672
0.00695940972881387
0.000710287373372158
0.000543937572104545
0.000910921479024290
0.000463251257992315
0
0
0
0
0
0
0
0
0
0
0
0
0
0
0
0
0
0
0
0
0
0.00991753770888743
0.00831880776894602
0.00658166507613157
0.00561952897124657
0.00458075713122157
0.00410765451418855
0.00428037008560812
0.00448759793162442
0.00436545338597852
0.00364275047710057
0.00289782646497820
0.00267999652497915
0.00238618932476592
0.00201983268040158
0.00187343563085397
0.00219803621267203
0.00219905391242152
0.00178129415200988
0.00132526124252446
0.00119293783786377
0.00164454992577138
0.00227206475549132
0.00179835856165712
0.00117437138478354
0.00103844196522531
0.00126401933104358
0.00148084320586120
0.00135634085716494
0.00117663887254243
0.00103031496538379
0.000980513445805107
0.00366693213905852
0.00524284123881062
0.00715367410030387
0.00884336276793900
0.00843708025320712
0.00635606677989765
0.00422114456296577
0.00266010387619675
0.000523082007504193
1.81498993751145e-05
0
0
0
0
0
0
0
0
0
0
0
0
0
0
0
0
0
0
0
0
0.00940331393961805
0.00887766219207687
0.00699991960611493
0.00590495297561715
0.00506087156166630
0.00403501340609915
0.00355784052789662
0.00402783181681337
0.00410136351277450
0.00362222113964928
0.00291738920283527
0.00236103835409688
0.00666183784316755
0.00212149427565647
0.00183116242752503
0.00220483021965802
0.00248475507397558
0.00220062225927123
0.00184647508438048
0.00144775006649905
0.00144334285680693
0.00220022256899323
0.00287307165232442
0.00248043446726132
0.00151905545244493
0.00102877516691435
0.00106439947042408
0.00123762468154320
0.00122256187584235
0.00103913439354075
0.000841435613088183
0.000746873211761628
0.00350031589336325
0.00499202260138568
0.00662979263809955
0.00761058233490875
0.00637627453687985
0.00592851886394897
0.00478111990260427
0.00175729113733545
0.00493518040807018
0.00334778623841050
1.70178143005367e-05
0
0
0
0
0
0
0
0
0
0
0
0
0
0
0
0
0
0
0
0.0101710432545586
0.00807114835583290
0.00631908232237817
0.00583483676544445
0.00666679661625663
0.00372859724881797
0.00328785852842450
0.00366293556725460
0.00353872350651310
0.00294551951835043
0.00233869698338262
0.00474764088705445
0.00498825979983292
0.00170604934686237
0.00161642358019183
0.00211549249370525
0.00258286634075538
0.00223619143820803
0.00161963160229240
0.00128079823595136
0.00143439047634540
0.00223882743604570
0.00282318443082395
0.00292290065385722
0.00234581393931632
0.00158825942033908
0.00125181767587986
0.00120666017955998
0.00114706756086667
0.00104300473297456
0.000902398951910312
0.000832189722079817
0.00181381730341473
0.00485752756293590
0.00577316465880128
0.00600377022952690
0.00436273711226067
0.00542938641563342
0.00267485333724255
0.00526423596077253
0.00514014579947102
0.00337686555053585
3.16913290636573e-06
4.43878576144792e-06
0
0
0
0
0
0
0
0
0
0
0
0
0
0
0
0
0
0
0.00986075648218517
0.00650978666580790
0.00569160420325055
0.00612953880538247
0.00484085006483742
0.00328808329349745
0.00261485274969872
0.00266865868766102
0.00259113508343983
0.00223919984940812
0.00359636924215158
0.00287544552675803
0.00445606025850417
0.00160490833901211
0.00153870297860342
0.00209183676593865
0.00258041954571520
0.00218647836185220
0.00143548838145668
0.00120229633568188
0.00164420651057398
0.00200020611538695
0.00229639346986500
0.00253765017387457
0.00340553140112958
0.00267267196108527
0.00162478636950748
0.00140651065428375
0.00115133082341216
0.00108235077068941
0.000997753445939380
0.00102750752059393
0.00127437521329305
0.00371497685764968
0.00498049569220963
0.00350354960245723
0.00304559901290130
0.00456374021063153
0.00448780957515668
0.00471101080382243
0.00503365670403290
0.00343071571634147
0.00279543228674402
1.19845692349761e-06
5.85501500066548e-06
0
0
0
0
0
0
0
0
0
0
0
0
0
0
0
0
0
0.00806207306001978
0.00520926215022528
0.00547815686508493
0.00641743768372942
0.00517503572201237
0.00337069827656738
0.00237389021231107
0.00211344749654885
0.00201107848945923
0.00169824561300815
0.00274587848268690
0.00237073239531592
0.00407426641005860
0.00126371725829927
0.00156480980470150
0.00244969339681678
0.00294866084287507
0.00223803221310615
0.00145031091109501
0.00126047600022789
0.00164513549432085
0.00201409637713530
0.00195156649030258
0.00201149491268872
0.00279202542123950
0.00212402974454707
0.00191069682971245
0.00151079891528198
0.00110792110834874
0.00109532321892338
0.00113204753760373
0.00126443471257531
0.00156186799297048
0.00229310900479522
0.00482156576239143
0.00287814407650743
0.00271266127918225
0.00394212780059863
0.00381609047843080
0.00416848852264712
0.00251240675845400
0.00418321963227123
0.00280825745033122
2.27091363337810e-05
7.28394993990168e-06
4.71016903532473e-06
0
0
0
0
0
0
0
0
0
0
0
0
0
0
0
0.00554738806428658
0.00586500063095738
0.00457657486297832
0.00519993917104277
0.00625411906947702
0.00515020750412403
0.00377937668098513
0.00265755556069958
0.00201446379757815
0.00179193792375272
0.00157257273433962
0.00273811796515795
0.00265194221391048
0.00465027881402432
0.00102646738905264
0.00149122152304798
0.00244320528195262
0.00311107430725477
0.00250979794737957
0.00169804319138953
0.00149897164752457
0.00187654929750763
0.00210408953530842
0.00178616453180293
0.00144457509820135
0.00149803399963498
0.00171954723308123
0.00170495969702455
0.00151328474894353
0.00114858183899784
0.00115072611105113
0.00123681542974028
0.00140748926129325
0.00157234218129582
0.00289129388016795
0.00366687157643137
0.00286184378340020
0.00259948967927648
0.00305485493004362
0.00356923120689895
0.00342122045331442
0.00191377776864655
0.00351180254622473
0.00250517306714422
0.00364995223897477
0.00290944422125965
0.00291918438303827
0
0
0
0
0
0
0
0
0
0
0
0
0
0
0
0.00818948814620135
0.00508715890829567
0.00420998223926890
0.00479717363086210
0.00565063987726232
0.00499572626770690
0.00469518050219368
0.00346314802426053
0.00239550190830322
0.00188790129374258
0.00174889846964323
0.00127427911206205
0.00377998971853572
0.00574623849105585
0.00627481286677870
0.00171349187307812
0.00260473674000002
0.00305705559549967
0.00262112776226450
0.00209269148557245
0.00199051749373273
0.00219477444013422
0.00213871246020560
0.00161353537688504
0.00111958429044159
0.00109516490770446
0.00122112409753404
0.00139996906178808
0.00145120284402206
0.00147399527936504
0.00138062568015378
0.00135405572217730
0.00138157021397650
0.00132051788397082
0.00426817030580122
0.00334980335507345
0.00286844378777557
0.00267975664676152
0.00280061007614428
0.00349464086025287
0.00277459272728010
0.00223845444493470
0.00252887418310697
0.00293248907625728
0.00274030077848545
0.00331692947377967
0.00386626418665792