/*--------------------------------*- C++ -*----------------------------------*\
| =========                 |                                                 |
| \\      /  F ield         | OpenFOAM: The Open Source CFD Toolbox           |
|  \\    /   O peration     | Version:  2.4.0                                 |
|   \\  /    A nd           | Web:      www.OpenFOAM.org                      |
|    \\/     M anipulation  |                                                 |
\*---------------------------------------------------------------------------*/
FoamFile
{
    version     2.0;
    format      ascii;
    class       volScalarField;
    object      pvf;
}
// * * * * * * * * * * * * * * * * * * * * * * * * * * * * * * * * * * * * * //

dimensions      [0 0 0 0 0 0 0];

internalField   nonuniform List<scalar>
6448
(
  0
  0
  0
  0
  0
  0
  0
  0
  0
  0
  0
  0
  0
  0
  0
  0
  0
  0
  0
  0
  0
  0
  0
  0
  0
  0
  0
  0
  0
  0
  0
  0
  0
  0
  0
  0
  0
  0
  0
  0
  0
  0
  0
  0
  0
  0
  0
  0
  0
  0
  0
  0
  0
  0
  0
  0
  0
  0
  0
  0
  0
  0
  0
  0
  0
  0
  0
  0
  0
  0
  0
  0
  0
  0
  0
  0
  0
  0
  0
  0
  0
  0
  0
  0
  0
  0
  0
  0
  0
  0
  0
  0
  0
  0
  0
  0
  0
  0
  0
  0
  0
  0
  0
  0
  0
  0
  0
  0
  0
  0
  0
  0
  0
  0
  0
  0
  0
  0
  0
  0
  0
  0
  0
  0
  0
  0
  0
  0
  0
  0
  0
  0
  0
  0
  0
  0
  0
  0
  0
  0
  0
  0
  0
  0
  0
  0
  0
  0
  0
  0
  0
  0
  0
  0
  0
  0
  0
  0
  0
  0
  0
  0
  0
  0
  0
  0
  0
  0
  0
  0
  0
  0
  0
  0
  0
  0
  0
  0
  0
  0
  0
  0
  0
  0
  0
  0
  0
  0
  0
  0
  0
  0
  0
  0
  0
  0
  0
  0
  0
  0
  0
  0
  0
  0
  0
  0
  0
  0
  0
  0
  0
  0
  0
  0
  0
  0
  0
  0
  0
  0
  0
  0
  0
  0
  0
  0
  0
  0
  0
  0
  0
  0
  0
  0
  0
  0
  0
  0
  0
  0
  0
  0
  0
  0
  0
  0
  0
  0
  0
  0
  0
  0
  0
  0
  0
  0
  0
  0
  0
  0
  0
  0
  0
  0
  0
  0
  0
  0
  0
  0
  0
  0
  0
  0
  0
  0
  0
  0
  0
  0
  0
  0
  0
  0
  0
  0
  0
  0
  0
  0
  0
  0
  0
  0
  0
  0
  0
  0
  0
  0
  0
  0
  0
  0
  0
  0
  0
  0
  0
  0
  0
  0
  0
  0
  0
  0
  0
  0
  0
  0
  0
  0
  0
  0
  0
  0
  0
  0
  0
  0
  0
  0
  0
  0
  0
  0
  0
  0
  0
  0
  0
  0
  0
  0
  0
  0
  0
  0
  0
  0
  0
  0
  0
  0
  0
  0
  0
  0
  0
  0
  0
  0
  0
  0
  0
  0
  0
  0
  0
  0
  0
  8.33009184185937e-05
  0
  0
  0
  0
  0
  0
  0
  0
  0
  0
  0
  0
  0
  0
  0
  0
  0
  0
  0
  0
  0
  0
  0
  0
  0
  0
  0
  0
  0
  0
  0
  0
  0
  0
  0
  0
  0
  0
  0
  0
  0
  0
  0
  0
  0
  0
  0
  0
  0
  0
  0
  0
  0
  0
  0
  0
  0
  0
  0
  0.0113409274961775
  0.0154599802697132
  2.52384360779379e-14
  0
  0
  0
  0
  0
  0
  0
  0
  0
  0
  0
  0
  0
  0
  0
  0
  0
  0
  0
  0
  0
  0
  0
  0
  0
  0
  0
  0
  0
  0
  0
  0
  0
  0
  0
  0
  0
  0
  0
  0
  0
  0
  0
  0
  0
  0
  0
  0
  0
  0
  0
  0
  0
  0
  0
  0
  0
  0
  0.0244717740263460
  0.0156416024977395
  0.0149757747863567
  0.0152847393456148
  0
  0
  0
  0
  0
  0
  0
  0
  0
  0
  0
  0
  0
  0
  0
  0
  0
  0
  0
  0
  0
  0
  0
  0
  0
  0
  0
  0
  0
  0
  0
  0
  0
  0.0264530304062980
  0.0192157856656876
  0.0220939348163479
  0
  0
  0
  0
  0
  0
  0
  0
  0
  0
  0
  0
  0
  0
  0
  0
  0
  0
  0
  0
  0
  0
  0.0222484218834684
  0.0118472311921020
  0.00866737788826021
  0.0110846598743785
  0
  0
  0
  0
  0
  0
  0
  0
  0
  0
  0
  0
  0
  0
  0
  0
  0
  0
  0
  0
  0
  0
  0
  0
  0
  0
  0
  0
  0
  0.0552768120554449
  0.0574307226020069
  0.0759404613027331
  0.0634897712096099
  0.0377411527889169
  0.0243261105510875
  0.0257165268858446
  0.0513378730030905
  0.0322319062400767
  0
  0
  0
  0
  0
  0
  0
  0
  0
  0
  0
  0
  0
  0
  0
  0
  0
  0
  0
  0.0307085762268106
  0.0234572267521851
  0.0131308906777357
  0.00790330240303455
  0.00508427065860323
  0
  0
  0
  0
  0
  0
  0
  0
  0
  0
  0
  0
  0
  0
  0
  0
  0
  0
  0
  0
  0
  0
  0
  0
  0
  0
  0.0563930927368189
  0.0698191671303503
  0.0630124791302071
  0.0484808434313361
  0.0499883269255438
  0.0714417370707561
  0.0887843558684993
  0.0546258778847259
  0.0264642937750051
  0.0254872667108741
  0.0246535702547373
  0.0203460095005535
  0.0143879140987786
  0.0123238815052800
  0.0143989821489141
  0
  0
  0
  0
  0
  0
  0
  0
  0
  0
  0
  0
  0
  0
  0
  0.0356051527499636
  0.0302271806887931
  0.0191854899578452
  0.0152316715219717
  2.13722407148417e-07
  9.90269801624074e-13
  0
  0
  0
  0
  0
  0
  0
  0
  0
  0
  0
  0
  0
  0
  0
  0
  0
  0
  0
  0
  0
  0
  0
  0
  0
  0.0374316158006308
  0.0496834088514157
  0.0579358644670197
  0.0438922501419926
  0.0356423184869362
  0.0378446405363107
  0.0433045629744579
  0.0606623210337811
  0.0474813434218228
  0.0298385429736002
  0.0207648408653389
  0.0183119797195393
  0.0178750630708934
  0.0164679422137536
  0.0157373237730000
  0.0189135869890876
  0.0222144132732107
  0.00779462808637463
  2.49990413757887e-07
  0
  0
  0
  0
  0
  0
  0
  0
  0
  0
  0
  0.0350622502568702
  0.0336155780541365
  0.0284448035600697
  0.0172142051568725
  0.0121189015908112
  7.50648396872918e-13
  1.35080312360651e-12
  0
  0
  0
  0
  0
  0
  0
  0
  0
  0
  0
  0
  0
  0
  0
  0
  0
  0
  0
  0
  0
  0
  0
  0
  0.0304809845774378
  0.0310211786897667
  0.0376942125850330
  0.0373474136320841
  0.0283072361630088
  0.0237682951538396
  0.0223567027817172
  0.0247910188001012
  0.0266867502273569
  0.0298780405410755
  0.0245582976710327
  0.0215609226218797
  0.0233820110124295
  0.0250663809648503
  0.0264838417413572
  0.0228552904491603
  0.0188227724616143
  0.0135929980236303
  0.00853285737697782
  0.00513739935885932
  0
  0
  0
  0
  0
  0
  0
  0
  0
  0
  0
  0.0257981286236952
  0.0246572714484993
  0.0267129617543376
  0.0179373392836869
  0.0116618954917289
  4.23885525346256e-13
  8.64369107038864e-08
  0
  0
  0
  0
  0
  0
  0
  0
  0
  0
  0
  0
  0
  0
  0
  0
  0
  0
  0
  0
  0
  0
  0
  0.0235691609828671
  0.0296100696053328
  0.0343167531862436
  0.0358290542112556
  0.0256105553674668
  0.0132918020025131
  0.0150301748199778
  0.0229891997976884
  0.0212548474641317
  0.0162975135505329
  0.0209590929481679
  0.0244484057808348
  0.0251848576151156
  0.0311543095062241
  0.0324621936453637
  0.0332713552978641
  0.0298275825144904
  0.0220425697309369
  0.0209620745649012
  0.0287642703522039
  0.0256702533901446
  0.0265676370669164
  0
  0
  0
  0
  0
  0
  0.0150527818936298
  0.0201144764787224
  0.0202030637460849
  0.0180667231110114
  0.0156604068537705
  0.0197518706282108
  0.0272557543674606
  0.0208878274987414
  0.0139217310578066
  0.00544674719082357
  2.07190670558632e-07
  0
  0
  0
  0
  0
  0
  0
  0
  0
  0
  0
  0
  0
  0
  0
  0
  0
  0
  0
  0
  0
  0
  0.0105398196784105
  0.0222047304893019
  0.0334660920119263
  0.0349092974295322
  0.0334242840319538
  0.0283257785222168
  0.0235120912338121
  0.0239102726771797
  0.0258799197778871
  0.0225557060459848
  0.0170426881917581
  0.0177493562640291
  0.0213359161592256
  0.0237207761392649
  0.0263177441745990
  0.0299006849268230
  0.0347971813435989
  0.0341117742529638
  0.0294610853327692
  0.0328947649476759
  0.0382053751134300
  0.0375019046659347
  0.0378381594870613
  0.0208128314648190
  0
  0.0224166462825455
  0.0228958047348614
  0
  0.0108874933483715
  0.0146552727450272
  0.0201957843719006
  0.0196580583147021
  0.0157296315538793
  0.0135842411523306
  0.0194516819651494
  0.0285199203895963
  0.0227583154705697
  0.0162113008981913
  0.0124870947337480
  0.00327673608398385
  0
  0
  0
  0
  0
  0
  0
  0
  0
  0
  0
  0
  0
  0
  0
  0
  0
  0
  0
  0
  0
  0.00493713298056136
  0.0203223087247719
  0.0338468128772761
  0.0374274871819489
  0.0352924993684775
  0.0331278066927237
  0.0298498985511248
  0.0266085808499835
  0.0282806972537402
  0.0256903667729032
  0.0205598318678844
  0.0162503422079115
  0.0155557917761905
  0.0142773233697291
  0.0137938400239006
  0.0150685157418650
  0.0218133696928348
  0.0380065259458229
  0.0461360435207563
  0.0464311736120407
  0.0457528247354796
  0.0411483766459453
  0.0404953371502051
  0.0415026312921735
  0.0305274563157411
  0.0222697357221978
  0.0222032865345812
  0.0221823963755684
  0.0166389326645616
  1.48195371995879e-07
  0.0136441240552917
  0.0196371912879274
  0.0214291735182130
  0.0155519020908975
  0.0131489658693485
  0.0210002221245168
  0.0257539972067913
  0.0212569065697742
  0.0169301679336598
  0.0121167918902288
  7.73652812847742e-11
  0
  0
  0
  0
  0
  0
  0
  0
  0
  0
  0
  0
  0
  0
  0
  0
  0
  0
  0
  0
  0.00432253932354716
  0.0241335476360634
  0.0409135254955002
  0.0452590422305723
  0.0416508695434404
  0.0358742513523089
  0.0316240572377674
  0.0329556687192774
  0.0333951072860699
  0.0258425791665610
  0.0214067227837747
  0.0163410186681112
  0.0168341182961777
  0.0162429157420543
  0.0121092710511581
  0.00977541704802413
  0.0120524459607187
  0.0178006773114223
  0.0283328027450207
  0.0396819411109333
  0.0464649065408161
  0.0460396402615578
  0.0413525511731870
  0.0371587656088565
  0.0365193467529426
  0.0366286496494045
  0.0315707508814416
  0.0308699140340253
  0.0290690501396360
  1.51091744810309e-07
  4.53597907413390e-08
  3.74916775892560e-14
  0.0227683002120658
  0.0237252129748175
  0.0165922964091399
  0.0126218504834056
  0.0184699242114019
  0.0240309266154781
  0.0201983473160185
  0.0183103423306799
  0.0103720380568504
  0.00514213471280679
  0
  0
  0
  0
  0
  0
  0
  0
  0
  0
  0
  0
  0
  0
  0
  0
  0
  0
  0
  0
  0.0212589538766957
  0.0451555605404054
  0.0533829048944033
  0.0450753561387698
  0.0401904998400735
  0.0342731407072211
  0.0300948465880591
  0.0350871724247833
  0.0366791052595060
  0.0289766419787650
  0.0139770509385130
  0.0136567813469701
  0.0177179376632487
  0.0207215971343945
  0.0158259335652425
  0.0104369787716570
  0.00825540055512600
  0.0101168751688080
  0.0132762716533605
  0.0175413179880901
  0.0224729920883846
  0.0263436321910423
  0.0278771693406182
  0.0266840542138930
  0.0276848275804644
  0.0342059027031682
  0.0389350987098742
  0.0444468305208129
  4.41495972432899e-14
  0.000142666515584502
  2.45895688533929e-14
  0.00577977633764108
  0.0252315105995741
  0.0257960924975238
  0.0201647316559549
  0.0147902935014255
  0.0167855585191084
  0.0232667107877753
  0.0207396082018556
  0.0178005926462427
  0.0113040656809503
  0.000321421367488880
  0
  0
  0
  0
  0
  0
  0
  0
  0
  0
  0
  0
  0
  0
  0
  0
  0
  0
  0.00423042591034676
  0.0122142536153614
  0.0385439320164019
  0.0625346964441951
  0.0509030103653310
  0.0413460548392429
  0.0371388312018129
  0.0332030401881532
  0.0281257558410588
  0.0306655887102149
  0.0324639047498739
  0.0303826636723971
  0.0243252050225830
  0.0175237265474757
  0.0185950465263628
  0.0231997712994848
  0.0188286497526659
  0.0114078979326487
  0.00963785347002974
  0.00907438455265043
  0.00901742298588126
  0.0112511662533545
  0.0153761440452503
  0.0194418587296064
  0.0199210553974192
  0.0176158201740641
  0.0194684742293569
  0.0286023089928452
  0.0396571091361660
  0.0497853182671309
  0.00477662334486555
  0.0133783018537747
  2.22045932147448e-14
  0.00109475601200134
  0.0229341992028047
  0.0269803592646501
  0.0255201668415776
  0.0186487955396111
  0.0165653668634095
  0.0213257810579818
  0.0219464410292460
  0.0153953509115003
  0.00948572104412763
  0.00275031563180033
  0
  0
  0
  0
  0
  0
  0
  0
  0
  0
  0
  0
  0
  0
  0
  0
  0
  0
  0
  0.0281587803795856
  0.0509469882560926
  2.22060502006695e-14
  0.0401140848699184
  0.0354619115249320
  0.0363094541294311
  0.0327440177248078
  0.0292210784226881
  0.0269590259135655
  0.0270908691000416
  0.0285836501329911
  0.0284798065689014
  0.0280847264030338
  0.0249233432027008
  0.0215650564492281
  0.0247425781218863
  0.0151369718669539
  0.0133617633913089
  0.0125890785112002
  0.0101001770401826
  0.00974577942100329
  0.0134610649141821
  0.0210698323686080
  0.0234392673389762
  0.0216233352116690
  0.0210565821679175
  0.0229619822362025
  0.0282297630513851
  0.0364683972132964
  0.00250422492822460
  0.00243151427351860
  0.00789698912217293
  2.88728753349103e-07
  0.0232366521861278
  0.0257290388769542
  0.0292865571242460
  0.0208189255181209
  0.0159595659003446
  0.0208326524231949
  0.0199965579765802
  0.0123361675639059
  0.00485215553020561
  0.000942982699990440
  0
  0
  0
  0
  0
  0
  0
  0
  0
  0
  0
  0
  0
  0
  0
  0
  0
  0
  0.0196816372265185
  0.0372666645757259
  0.0443028616712229
  0.0339512184941161
  0.0305423202003562
  0.0338741805194851
  0.0364134706463567
  0.0393921485891578
  0.0361186530173513
  0.0293167206643994
  0.0224849948216811
  0.0211662798046557
  0.0250240472714899
  0.0267376868449184
  0.0257535480992041
  0.0202096917530720
  0.0268202691103749
  0.0218331398018286
  0.0192372483272019
  0.0176456001863388
  0.0148679114397658
  0.0109930547031441
  0.0115086614337206
  0.0163027743220452
  0.0211335090472975
  0.0245719055888307
  0.0245275052818114
  0.0215207867503247
  0.0190175230555009
  0.0215724800343276
  0.00814224326379230
  0.00293114750089952
  0.00987018710493192
  0.0333794424675604
  0.00335690572515556
  0.0137919925222967
  0.00716600783491219
  0.0226664015500716
  0.00963271322516461
  2.22050000318969e-14
  0.0176648418610096
  0.00973451730617648
  0.00311632233182125
  2.22061442055545e-14
  0
  0
  0
  0
  0
  0
  0
  0
  0
  0
  0
  0
  0
  0
  0
  0
  0
  0.0138392012081516
  0.0205984487581759
  0.0307603708152009
  0.0294119557293630
  0.0234440590348790
  0.0235175678492212
  0.0325369903177255
  0.0378412752170136
  0.0375037039263053
  0.0328866359144755
  0.0292477779912754
  0.0163252038702013
  0.0127596373541707
  0.0146508891517753
  0.0185908588358376
  0.0221521005336342
  0.0198361727863577
  0.0232480796841051
  0.0268846326632148
  0.0258871908289488
  0.0227868693256711
  0.0183613765747365
  0.0136569282338975
  0.0114330037523132
  0.0120488511275612
  0.0152958823316343
  0.0200215145670246
  0.0234577671111250
  0.0221217433321301
  0.0170588485840055
  0.0143082827062573
  0.0173905912860616
  0.0247515516723626
  0.0289547283345469
  0.000331019199199363
  0.00698935626020660
  0.0156171685081429
  0.0111778321950103
  5.81532424905519e-08
  0.0102961716655584
  0.00331986554681171
  0.0135087606674547
  0.0104791050161055
  0.00625257638091251
  1.18467138451254e-07
  0
  0
  0
  0
  0
  0
  0
  0
  0
  0
  0
  0
  0
  0
  0
  0
  0.0177871330494750
  0.0178586338986875
  0.0229093271711003
  0.0215649627499994
  0.0191410158698945
  0.0190415818782047
  0.0231628414327816
  0.0325298687763832
  0.0367228287718627
  0.0332910731760247
  0.0276513107708667
  0.0214311402079514
  0.0161049534540657
  0.0110870144694690
  0.0105802727607855
  0.0136028231939722
  0.0150157801065019
  0.0186747458840684
  0.0241257742801033
  0.0263600826198761
  0.0287417773349176
  0.0280261994102714
  0.0243777926966408
  0.0191091791821227
  0.0148014466407218
  0.0126804274835594
  0.0125346095197059
  0.0141787828707952
  0.0175802400999083
  0.0197149579983405
  0.0174837243626953
  0.0135725837854974
  0.0109694937656404
  0.0129658851763983
  0.0194675093226484
  0.00539623999378012
  0.0127152312178205
  0.0191607141728845
  0.0152066670722850
  0.00250333212002060
  0.000886735094428996
  0.00812115190394499
  0.0164439787615536
  0.0115503461887081
  0.00656994717206793
  0.00397312930819766
  0
  0
  0
  0
  0
  0
  0
  0
  0
  0
  0
  0
  0
  0
  0
  0
  0.0197980974324881
  0.0231298196189601
  0.0305127092936908
  3.57524362166145e-10
  0.0164665771508722
  0.0177269523971981
  0.0252740086684027
  0.0334766063546106
  0.0311925802793404
  0.0245606156593352
  0.0206437291330167
  0.0203440777048623
  0.0181416457941044
  0.0140098166541689
  0.0106640952158735
  0.0101826353180497
  0.0137823786700458
  0.0186537761536780
  0.0205369988238847
  0.0231293519781735
  0.0268497473336709
  0.0300183552155709
  0.0304077445930765
  0.0255597010551702
  0.0195955810644112
  0.0159017744275945
  0.0140081111826463
  0.0130183783358336
  0.0141472717187256
  0.0170283182439394
  0.0186464184592632
  0.0165440255071032
  0.0110684829316785
  0.00873027342004002
  0.0137923066880698
  0.00668453421836888
  0.0123452782432216
  0.0202067228497149
  0.0192467893077289
  0.0105957490180314
  0.00500162985609069
  0.0108423128175071
  0.0160304832092194
  0.0101190319713844
  0.00308546612408449
  0.00436556040921468
  0
  0
  0
  0
  0
  0
  0
  0
  0
  0
  0
  0
  0
  0
  0
  0.0238619311626064
  0.0199154567377006
  0.0294120632638265
  0.0388110445543295
  0.0299209836807970
  0.0176658536329399
  0.0192535786371309
  0.0297279641864204
  0.0325083619199282
  0.0258834648415486
  0.0173269813273565
  0.0171766608111714
  0.0207962137037367
  0.0188739247422891
  0.0152941488078183
  0.0121410437829696
  0.00989714097706147
  0.00874200366190011
  0.0127225393687938
  0.0173119210248093
  0.0177485593916825
  0.0210455133377010
  0.0274422420278641
  0.0320758722030156
  0.0296256313189935
  0.0229031571234585
  0.0187219315198911
  0.0166352971989455
  0.0146171847689258
  0.0139361481621439
  0.0160903228942375
  0.0188898212933722
  0.0177815112272813
  0.0133491291225905
  0.00976518002025693
  0.0120842683464338
  0.0191359434567411
  0.00983527273683037
  0.0156843578938801
  0.0181857427191415
  0.0130135621727192
  0.00731228306073417
  0.00802475860751650
  0.0111408622331827
  0.00614825274309504
  0.00642197813182224
  0.00319187891446647
  0
  0
  0
  0
  0
  0
  0
  0
  0
  0
  0
  0
  0
  0
  0.0442779845835428
  0.0223253916065617
  0.0204746140928149
  0.0317276176835357
  0.0372036018619903
  0.0313446162231342
  0.0247703998195282
  0.0285086944302559
  0.0348010717944140
  0.0317230581492348
  0.0253283531522196
  0.0189885911389800
  0.0165649764041359
  0.0198886693547879
  0.0149590082659982
  0.0116841007151707
  0.0111648172033710
  0.0107169798290889
  0.00843870385151769
  0.00708323349314965
  0.0132607931873215
  0.0135628455228383
  0.0157143310319960
  0.0213346284336825
  0.0262587188498196
  0.0272184521434211
  0.0246683608672618
  0.0217778763234008
  0.0189026770974272
  0.0146550792999652
  0.0134151396868526
  0.0142029406323680
  0.0161909730759811
  0.0160189646916902
  0.0136762337643222
  0.0124991522499777
  0.0133006118043872
  0.0169260387734123
  0.00987008766502626
  0.0123921605168922
  0.0161614693377322
  0.0145405134266102
  0.0102378127954548
  0.00739761021167602
  0.0100000774893280
  0.00894951620406969
  0.00783125886010685
  0.00584799677316001
  0
  0
  0
  0
  0
  0
  0
  0
  0
  0
  0
  0
  0
  0
  0.0332948364261428
  0.0208657525495982
  0.0248732681298434
  0.0345741959205337
  0.0310053760956353
  0.0267443518232162
  0.0262923383182100
  0.0339170512204604
  0.0389043098179670
  0.0304186968411545
  0.0263649347666903
  0.0235465657140384
  0.0192118156800275
  0.0148725400710178
  0.00995190375202280
  0.00685335669849138
  0.00630801486690342
  0.00709931861412352
  0.00811943657507481
  0.00720153312754290
  0.0106381486698486
  0.0126223826880672
  0.0123220757015528
  0.0154953850717861
  0.0189074309535823
  0.0236729240329694
  0.0254859690366092
  0.0242181177224708
  0.0195975487884643
  0.0131072383551822
  0.00945259847918846
  0.0109113290287207
  0.0121887619357843
  0.0123010157481029
  0.0120834138084355
  0.0128963109712955
  0.0143518556415690
  0.0162239392382972
  0.0122814733149678
  0.0102477231165628
  0.0119116357744293
  0.0146557150550883
  0.0147721299031406
  0.0116132993895575
  0.00899518159652999
  0.00936682603958263
  0.00662503630840611
  0.00904469914284123
  0
  0
  0
  0
  0
  0
  0
  0
  0
  0
  0
  0
  0
  0.0384260550107569
  1.00331684549159e-09
  0.0195699921201816
  0.0296742259859213
  0.0362084085628452
  0.0297588889625112
  0.0237199565605723
  0.0230436331952879
  0.0334777170785175
  0.0357508569558559
  0.0271291762342973
  0.0287748650500486
  0.0278223629721335
  0.0198325636271636
  0.0116871496830555
  0.00772809604820398
  0.00705786292214660
  0.00606354654357128
  0.00524804816765332
  0.00619394065346449
  0.00815963052242986
  0.0106293746494847
  0.0143053542495791
  0.0128838641694405
  0.0132647176208490
  0.0160327764676774
  0.0200982910010284
  0.0244314559680086
  0.0248747960911348
  0.0182782988984467
  0.0101024538534889
  0.00504803153715674
  0.00737291935141039
  0.00911389311452468
  0.00939480519603868
  0.0100005397253186
  0.0115512006572055
  0.0129739838928302
  0.0128047122392175
  0.0137428547165611
  0.00981650337495879
  0.00789476180805781
  0.0130125757041422
  0.0194581289256962
  0.0184164715124281
  0.0137657534129886
  0.0107470202968000
  0.00407938442204067
  0.00757779515761111
  0
  0
  0
  0
  0
  0
  0
  0
  0
  0
  0
  0
  0
  0.0218156825472661
  0.0105778255151228
  0.0180368109086236
  0.0329657580083095
  0.0360526933918196
  0.0279777414821784
  0.0237307608195358
  0.0261071349858395
  0.0276426699289910
  0.0259061457939438
  0.0242021348168982
  0.0293998164869281
  0.0304757668451779
  0.0217977752362698
  0.0137789160510866
  0.0115650963737297
  0.0118914248006149
  0.00892304341966869
  0.00323560735151691
  0.00546031306258158
  0.00961520820315290
  0.0117638489811254
  0.0141748251474457
  0.0144115579643587
  0.0126134030329459
  0.0134105044359108
  0.0162745167657015
  0.0207981997337374
  0.0219574145300212
  0.0156520534824063
  0.00730878925221392
  0.00577063800315354
  0.00676860756790937
  0.00780806265203072
  0.00839344627168201
  0.00888101569408833
  0.00878146751344516
  0.00880875927369837
  0.00885192403406503
  0.0103573903236535
  0.0128289603915758
  0.0148444464652462
  0.00869679083281721
  0.0203046547809926
  0.0276577201283789
  0.0229217938183269
  0.0154791823781248
  0.00711173278249189
  0.00825056340057547
  0
  0
  0
  0
  0
  0
  0
  0
  0
  0
  0
  0
  4.43348858412138e-10
  0.0116968041600005
  0.00663133210019042
  0.0207321784397729
  0.0356493302930970
  0.0348936230845596
  0.0263598563786980
  0.0240063266979183
  0.0267608065525820
  0.0260846450338096
  0.0212817130513878
  0.0180176412055572
  0.0271070029810864
  0.0318066464327232
  0.0287231518418488
  0.0228516118960154
  0.0209444741298126
  0.0181355751205323
  0.00942113458074668
  0.00218573287491085
  0.00580345629626152
  0.0133062827666465
  0.0155515574644302
  0.0142928752178752
  0.0106808303222958
  0.00900822079539248
  0.0112467181027271
  0.0131927193528039
  0.0153477966912328
  0.0157297694721850
  0.0120460053386811
  0.00502936519649504
  0.00579009367211888
  0.00628977237732338
  0.00597497660351888
  0.00690646759580672
  0.00880627529497436
  0.00852601681771549
  0.00620162315334368
  0.00496739708688389
  0.00762429262598445
  0.0106008660974120
  0.0130015842194683
  0.0151750250099482
  0.0181600388463582
  0.0286298873458378
  0.0295120361624259
  0.0241438021088404
  0.0145984036778592
  0.0164499900977082
  0
  0
  0
  0
  0
  0
  0
  0
  0
  0
  0
  0.0330559796793697
  0.0272523324993229
  0.00956194415734655
  0.00995242398669908
  0.0277205313356604
  0.0381428589304916
  0.0323082421327381
  0.0228822816080363
  0.0228694606484661
  0.0285170970509840
  0.0277683922878026
  0.0205648935406721
  0.0205435049655997
  0.0306921228987545
  0.0343858212777708
  0.0347513245602431
  0.0343326519160297
  0.0310375666691852
  0.0225850938866477
  0.0106680706622856
  0.00495980806171838
  0.0100074508693032
  0.0176175660003832
  0.0174287019729292
  0.0139968112706134
  0.00646365409885502
  0.00351231466231038
  0.00523847733245355
  0.0125141000169281
  0.0128337399851235
  0.0119005981779435
  0.00915053363885312
  0.00326765938949703
  0.00571748756770530
  0.00583118620812019
  0.00427790321561287
  0.00532235453630630
  0.00832386426269580
  0.00948192583402509
  0.00655656062739329
  0.00407468992403867
  0.00423422122731193
  0.00812856195066361
  0.0109221342420769
  0.0121857808142087
  0.0152995397681316
  0.0226286938163263
  0.0280829082568945
  0.0305304509346958
  2.22289320670658e-14
  0.0129513968284906
  0
  0
  0
  0
  0
  0
  0
  0
  0
  0
  0
  0.0393222824073679
  0.0286334404765300
  0.0113705448014593
  0.0161251652586909
  0.0320560891851024
  0.0361605329216597
  0.0273617913110930
  0.0214126240469122
  0.0255483957749293
  0.0306490977048574
  0.0289781682372592
  0.0221267860558236
  0.0239143646817212
  0.0312107130447637
  0.0321271697634685
  0.0326250072735634
  0.0386576941429140
  0.0380589469491373
  0.0266259709951385
  0.0135046579559395
  0.00928013656189549
  0.0156366821630931
  0.0187990557858834
  0.0174286137844647
  0.0132690178685288
  0.00532665204915463
  0.00303624818292329
  0.00578800153908120
  0.0118720353668965
  0.0160322881091980
  0.0115140471565435
  0.00799437223458025
  0.000783881986591827
  0.00784718930784391
  0.00642240086889429
  0.00351335927603459
  0.00404550159023140
  0.00706374885403181
  0.00972716951752089
  0.00820799786833591
  0.00549480959654873
  0.00431627626921073
  0.00613318613296286
  0.00787422727394039
  0.0104128473974034
  0.0162495977871236
  0.0216641012879606
  0.0259784598755842
  0.0269310480188656
  0.000245954242314742
  0.00627594591799189
  0
  0
  0
  0
  0
  0
  0
  0
  0
  0
  0
  0.0455444647857364
  0.0271719174725336
  0.0115050105891707
  0.0181888401462552
  0.0304805984414961
  0.0306218265484324
  0.0235062201017975
  0.0222367432834561
  0.0269531331612506
  0.0295268158883980
  0.0272378485146631
  0.0249155213577573
  0.0278291222476094
  0.0314801592235241
  0.0322588909953537
  0.0327027877623483
  0.0377515119680430
  0.0400183130334045
  0.0287417617559488
  0.0170019110501651
  0.0143554090379119
  0.0156647478858960
  0.0179342329768595
  0.0180399766438675
  0.0114914517242891
  0.00608387544241640
  0.00435211367696167
  0.00708678093205445
  0.0130728286369303
  0.0174582752085364
  0.0125951022920942
  0.00728046581404548
  0.00142960830105957
  0.00167484812801634
  0.00851535801048383
  0.00443393231816724
  0.00357291675371065
  0.00523166099000770
  0.00779298755511824
  0.00851154614824004
  0.00781322516130566
  0.00667532253284242
  0.00456563382574817
  0.00450203041049416
  0.00948249390919340
  0.0205277316893278
  0.0257490751908291
  0.0246558927547707
  0.0217159020991966
  0.00892426354033507
  0.0142819310596521
  0
  0
  0
  0
  0
  0
  0
  0
  0
  0
  0.0498916556692155
  0.0421946436720587
  0.0201432870825445
  0.0117877688199199
  0.0202194710644858
  0.0282904919417637
  0.0266940318462040
  0.0226713940879542
  0.0247249377425601
  0.0283261038260842
  0.0271273006089913
  0.0252141282701804
  0.0275107419453905
  0.0343157676624429
  0.0347260737827320
  0.0347159317952259
  0.0380713933150558
  0.0398703853088421
  0.0395958543531271
  0.0289629055208534
  0.0186456771272481
  0.0141691307218903
  0.0122743245697993
  0.0125458701134914
  0.0159628026715521
  0.0169779468007532
  0.0101360311906811
  0.00577760298500306
  0.00601156475409351
  0.0109811064729721
  0.0125965614380894
  0.0109029423964848
  0.00539763011154269
  0.00415033953033585
  0.00673267805259704
  0.00814533364884794
  0.00722763535811540
  0.00589103920670729
  0.00537447773474818
  0.00580379791012154
  0.00666899661565114
  0.00864490742724257
  0.00751920566054912
  0.00514744946314985
  0.00199528684037213
  0.00647518069621008
  0.0229409776586904
  0.0285287368990927
  0.0244404773750574
  0.0271456638560866
  0.0333839383801337
  0.0271867246358742
  0
  0
  0
  0
  0
  0
  0
  0
  0
  0
  2.22076737039095e-14
  0.0343947297627111
  0.0160530330521455
  0.0147909365789840
  0.0228392585332067
  0.0246603329623210
  0.0216957323173842
  0.0215007504044362
  0.0268306082723009
  0.0302890308726453
  0.0250709174754650
  0.0230601928485041
  0.0283827878304379
  0.0350882013219832
  0.0355164195662436
  0.0385268849891934
  0.0408752904749082
  0.0421020294345881
  0.0389219284765149
  0.0303829302060365
  0.0198021070735692
  0.0121470529670075
  0.00721579849281429
  0.00713187562853682
  0.0151422928826342
  0.0198184769452619
  0.0153488233646774
  0.00680322225623502
  0.0107902707223909
  0.00597954759058522
  0.00588996947385108
  0.00565501237617399
  0.00121892368861687
  0.00226102379542418
  0.00149569959857769
  0.00179487092676752
  0.00732898693904519
  0.0120546959988670
  0.0103946907029334
  0.00561534980524233
  0.00459366540899317
  0.00862443767469623
  0.0108271338973790
  0.00719009487909520
  0.00345292807289930
  0.00490663046407738
  0.0194996792337024
  0.0256591358376693
  0.0269191248876903
  0.0398407669218964
  0.0492720397973256
  0.0494661792817961
  0
  0
  0
  0
  0
  0
  0
  0
  0
  0.0401295672743259
  2.22100501031790e-14
  0.0261048960738743
  0.0163561000255574
  0.0208585854339589
  0.0286973379355026
  0.0260540450508212
  0.0185576419654937
  0.0207029200548165
  0.0296898867722347
  0.0302522042517080
  0.0274702956951450
  0.0247829786626552
  0.0305256200323943
  0.0330175832578621
  0.0362762620836565
  0.0430553092888464
  0.0470174984959697
  6.92175183283573e-13
  3.57050657766060e-10
  0.0309266879946952
  0.0203798500265363
  0.0111453237410375
  0.00354052087661427
  0.00317915480801100
  0.0156986669084812
  0.0208775095872269
  0.0174022804185351
  0.0134566856772515
  0.00439224743515157
  0.00239117739558732
  2.25644967432057e-05
  3.56636355511288e-12
  3.62076677265727e-08
  0.000913686958035007
  8.52062860126520e-05
  0.000513386749459908
  0.00433093461521381
  0.0133371984345894
  0.0143164247976633
  0.00660314711120559
  0.00414365113462328
  0.00851927122502297
  0.0123644114593761
  0.00881383766050201
  0.00675432039362449
  1.72323322289456e-05
  0.0121989522008643
  0.0171163404752059
  0.0297548265941811
  0.0525134696859258
  0.0595567795900434
  0.0643420656008039
  0
  0
  0
  0
  0
  0
  0
  0
  0
  0.0377294615787861