/*--------------------------------*- C++ -*----------------------------------*\
| =========                 |                                                 |
| \\      /  F ield         | OpenFOAM: The Open Source CFD Toolbox           |
|  \\    /   O peration     | Version:  2.4.0                                 |
|   \\  /    A nd           | Web:      www.OpenFOAM.org                      |
|    \\/     M anipulation  |                                                 |
\*---------------------------------------------------------------------------*/
FoamFile
{
    version     2.0;
    format      ascii;
    class       volScalarField;
    object      Vcell;
}
// * * * * * * * * * * * * * * * * * * * * * * * * * * * * * * * * * * * * * //

dimensions      [0 3 0 0 0 0 0];

internalField   nonuniform List<scalar>
6448
(
5.27343744726562e-09
5.27343744726562e-09
5.27343744726562e-09
5.27343744726562e-09
5.27343744726562e-09
5.27343744726562e-09
5.27343744726562e-09
5.27343744726562e-09
5.27343744726562e-09
5.27343744726562e-09
5.27343744726562e-09
5.27343744726562e-09
5.27343744726562e-09
5.27343744726562e-09
5.27343744726562e-09
5.27343744726562e-09
5.27343744726562e-09
5.27343744726562e-09
5.27343744726562e-09
5.27343744726562e-09
5.27343744726562e-09
5.27343744726562e-09
5.27343744726562e-09
5.27343744726562e-09
5.27343744726562e-09
5.27343744726562e-09
5.27343744726562e-09
5.27343744726562e-09
5.27343744726562e-09
5.27343744726562e-09
5.27343744726562e-09
5.27343744726562e-09
5.27343744726562e-09
5.27343744726562e-09
5.27343744726562e-09
5.27343744726562e-09
5.27343744726562e-09
5.27343744726562e-09
5.27343744726562e-09
5.27343744726562e-09
5.27343744726562e-09
5.27343744726562e-09
5.27343744726562e-09
5.27343744726562e-09
5.27343744726562e-09
5.27343744726562e-09
5.27343744726562e-09
5.27343744726562e-09
5.27343744726562e-09
5.27343744726562e-09
5.27343744726562e-09
5.27343744726562e-09
5.27343744726562e-09
5.27343744726562e-09
5.27343744726562e-09
5.27343744726562e-09
5.27343744726562e-09
5.27343744726562e-09
5.27343744726562e-09
5.27343744726562e-09
5.27343744726562e-09
5.27343744726562e-09
5.27343744726562e-09
5.27343744726562e-09
5.27343744726562e-09
5.27343744726562e-09
5.27343744726562e-09
5.27343744726562e-09
5.27343744726562e-09
5.27343744726562e-09
5.27343744726562e-09
5.27343744726562e-09
5.27343744726562e-09
5.27343744726562e-09
5.27343744726562e-09
5.27343744726562e-09
5.27343744726562e-09
5.27343744726562e-09
5.27343744726562e-09
5.27343744726562e-09
5.27343744726562e-09
5.27343744726562e-09
5.27343744726562e-09
5.27343744726562e-09
5.27343744726562e-09
5.27343744726562e-09
5.27343744726562e-09
5.27343744726562e-09
5.27343744726562e-09
5.27343744726562e-09
5.27343744726562e-09
5.27343744726562e-09
5.27343744726562e-09
5.27343744726562e-09
5.27343744726562e-09
5.27343744726562e-09
5.27343744726562e-09
5.27343744726562e-09
5.27343744726562e-09
5.27343744726562e-09
5.27343744726562e-09
5.27343744726562e-09
5.27343744726562e-09
5.27343744726562e-09
5.27343744726562e-09
5.27343744726562e-09
5.27343744726562e-09
5.27343744726562e-09
5.27343744726562e-09
5.27343744726562e-09
5.27343744726562e-09
5.27343744726562e-09
5.27343744726562e-09
5.27343744726562e-09
5.27343744726562e-09
5.27343744726562e-09
5.27343744726562e-09
5.27343744726562e-09
5.27343744726562e-09
5.27343744726562e-09
5.27343744726562e-09
5.27343744726562e-09
5.27343744726562e-09
5.27343744726562e-09
5.27343744726562e-09
5.27343744726562e-09
5.27343744726562e-09
5.27343744726562e-09
5.27343744726562e-09
5.27343744726562e-09
5.27343744726562e-09
5.27343744726562e-09
5.27343744726562e-09
5.27343744726562e-09
5.27343744726562e-09
5.27343744726562e-09
5.27343744726562e-09
5.27343744726562e-09
5.27343744726562e-09
5.27343744726562e-09
5.27343744726562e-09
5.27343744726562e-09
5.27343744726562e-09
5.27343744726562e-09
5.27343744726562e-09
5.27343744726562e-09
5.27343744726562e-09
5.27343744726562e-09
5.27343744726562e-09
5.27343744726562e-09
5.27343744726562e-09
5.27343744726562e-09
5.27343744726562e-09
5.27343744726562e-09
5.27343744726562e-09
5.27343744726562e-09
5.27343744726562e-09
5.27343744726562e-09
5.27343744726562e-09
5.27343744726562e-09
5.27343744726562e-09
5.27343744726562e-09
5.27343744726562e-09
5.27343744726562e-09
5.27343744726562e-09
5.27343744726562e-09
5.27343744726562e-09
5.27343744726562e-09
5.27343744726562e-09
5.27343744726562e-09
5.27343744726562e-09
5.27343744726562e-09
5.27343744726562e-09
5.27343744726562e-09
5.27343744726562e-09
5.27343744726562e-09
5.27343744726562e-09
5.27343744726562e-09
5.27343744726562e-09
5.27343744726562e-09
5.27343744726562e-09
5.27343744726562e-09
5.27343744726562e-09
5.27343744726562e-09
5.27343744726562e-09
5.27343744726562e-09
5.27343744726562e-09
5.27343744726562e-09
5.27343744726562e-09
5.27343744726562e-09
5.27343744726562e-09
5.27343744726562e-09
5.27343744726562e-09
5.27343744726562e-09
5.27343744726562e-09
5.27343744726562e-09
5.27343744726562e-09
5.27343744726562e-09
5.27343744726562e-09
5.27343744726562e-09
5.27343744726562e-09
5.27343744726562e-09
5.27343744726562e-09
5.27343744726562e-09
5.27343744726562e-09
5.27343744726562e-09
5.27343744726562e-09
5.27343744726562e-09
5.27343744726562e-09
5.27343744726562e-09
5.27343744726562e-09
5.27343744726562e-09
5.27343744726562e-09
5.27343744726562e-09
5.27343744726562e-09
5.27343744726562e-09
5.27343744726562e-09
5.27343744726562e-09
5.27343744726562e-09
5.27343744726562e-09
5.27343744726562e-09
5.27343744726562e-09
5.27343744726562e-09
5.27343744726562e-09
5.27343744726562e-09
5.27343744726562e-09
5.27343744726562e-09
5.27343744726562e-09
5.27343744726562e-09
5.27343744726562e-09
5.27343744726562e-09
5.27343744726562e-09
5.27343744726562e-09
5.27343744726562e-09
5.27343744726562e-09
5.27343744726562e-09
5.27343744726562e-09
5.27343744726562e-09
5.27343744726562e-09
5.27343744726562e-09
5.27343744726562e-09
5.27343744726562e-09
5.27343744726562e-09
5.27343744726562e-09
5.27343744726562e-09
5.27343744726562e-09
5.27343744726562e-09
5.27343744726562e-09
5.27343744726562e-09
5.27343744726562e-09
5.27343744726562e-09
5.27343744726562e-09
5.27343744726562e-09
5.27343744726562e-09
5.27343744726562e-09
5.27343744726562e-09
5.27343744726562e-09
5.27343744726562e-09
5.27343744726562e-09
5.27343744726562e-09
5.27343744726562e-09
5.27343744726562e-09
5.27343744726562e-09
5.27343744726562e-09
5.27343744726562e-09
5.27343744726562e-09
5.27343744726562e-09
5.27343744726562e-09
5.27343744726562e-09
5.27343744726562e-09
5.27343744726562e-09
5.27343744726562e-09
5.27343744726562e-09
5.27343744726562e-09
5.27343744726562e-09
5.27343744726562e-09
5.27343744726562e-09
5.27343744726562e-09
5.27343744726562e-09
5.27343744726562e-09
5.27343744726562e-09
5.27343744726562e-09
5.27343744726562e-09
5.27343744726562e-09
5.27343744726562e-09
5.27343744726562e-09
5.27343744726562e-09
5.27343744726562e-09
5.27343744726562e-09
5.27343744726562e-09
5.27343744726562e-09
5.27343744726562e-09
5.27343744726562e-09
5.27343744726562e-09
5.27343744726562e-09
5.27343744726562e-09
5.27343744726562e-09
5.27343744726562e-09
5.27343744726562e-09
5.27343744726562e-09
5.27343744726562e-09
5.27343744726562e-09
5.27343744726562e-09
5.27343744726562e-09
5.27343744726562e-09
5.27343744726562e-09
5.27343744726562e-09
5.27343744726562e-09
5.27343744726562e-09
5.27343744726562e-09
5.27343744726562e-09
5.27343744726562e-09
5.27343744726562e-09
5.27343744726562e-09
5.27343744726562e-09
5.27343744726562e-09
5.27343744726562e-09
5.27343744726562e-09
5.27343744726562e-09
5.27343744726562e-09
5.27343744726562e-09
5.27343744726562e-09
5.27343744726562e-09
5.27343744726562e-09
5.27343744726562e-09
5.27343744726562e-09
5.27343744726562e-09
5.27343744726562e-09
5.27343744726562e-09
5.27343744726562e-09
5.27343744726562e-09
5.27343744726562e-09
5.27343744726562e-09
5.27343744726562e-09
5.27343744726562e-09
5.27343744726562e-09
5.27343744726562e-09
5.27343744726562e-09
5.27343744726562e-09
5.27343744726562e-09
5.27343744726562e-09
5.27343744726562e-09
5.27343744726562e-09
5.27343744726562e-09
5.27343744726562e-09
5.27343744726562e-09
5.27343744726562e-09
5.27343744726562e-09
5.27343744726562e-09
5.27343744726562e-09
5.27343744726562e-09
5.27343744726562e-09
5.27343744726562e-09
5.27343744726562e-09
5.27343744726562e-09
5.27343744726562e-09
5.27343744726562e-09
5.27343744726562e-09
5.27343744726562e-09
5.27343744726562e-09
5.27343744726562e-09
5.27343744726562e-09
5.27343744726562e-09
5.27343744726562e-09
5.27343744726562e-09
5.27343744726562e-09
5.27343744726562e-09
5.27343744726562e-09
5.27343744726562e-09
5.27343744726562e-09
5.27343744726562e-09
5.27299816507865e-09
5.27343744726562e-09
5.27343744726562e-09
5.27343744726562e-09
5.27343744726562e-09
5.27343744726562e-09
5.27343744726562e-09
5.27343744726562e-09
5.27343744726562e-09
5.27343744726562e-09
5.27343744726562e-09
5.27343744726562e-09
5.27343744726562e-09
5.27343744726562e-09
5.27343744726562e-09
5.27343744726562e-09
5.27343744726562e-09
5.27343744726562e-09
5.27343744726562e-09
5.27343744726562e-09
5.27343744726562e-09
5.27343744726562e-09
5.27343744726562e-09
5.27343744726562e-09
5.27343744726562e-09
5.27343744726562e-09
5.27343744726562e-09
5.27343744726562e-09
5.27343744726562e-09
5.27343744726562e-09
5.27343744726562e-09
5.27343744726562e-09
5.27343744726562e-09
5.27343744726562e-09
5.27343744726562e-09
5.27343744726562e-09
5.27343744726562e-09
5.27343744726562e-09
5.27343744726562e-09
5.27343744726562e-09
5.27343744726562e-09
5.27343744726562e-09
5.27343744726562e-09
5.27343744726562e-09
5.27343744726562e-09
5.27343744726562e-09
5.27343744726562e-09
5.27343744726562e-09
5.27343744726562e-09
5.27343744726562e-09
5.27343744726562e-09
5.27343744726562e-09
5.27343744726562e-09
5.27343744726562e-09
5.27343744726562e-09
5.27343744726562e-09
5.27343744726562e-09
5.27343744726562e-09
5.27343744726562e-09
5.27343744726562e-09
5.21363177492250e-09
5.19191020756206e-09
5.27343744726549e-09
5.27343744726562e-09
5.27343744726562e-09
5.27343744726562e-09
5.27343744726562e-09
5.27343744726562e-09
5.27343744726562e-09
5.27343744726562e-09
5.27343744726562e-09
5.27343744726562e-09
5.27343744726562e-09
5.27343744726562e-09
5.27343744726562e-09
5.27343744726562e-09
5.27343744726562e-09
5.27343744726562e-09
5.27343744726562e-09
5.27343744726562e-09
5.27343744726562e-09
5.27343744726562e-09
5.27343744726562e-09
5.27343744726562e-09
5.27343744726562e-09
5.27343744726562e-09
5.27343744726562e-09
5.27343744726562e-09
5.27343744726562e-09
5.27343744726562e-09
5.27343744726562e-09
5.27343744726562e-09
5.27343744726562e-09
5.27343744726562e-09
5.27343744726562e-09
5.27343744726562e-09
5.27343744726562e-09
5.27343744726562e-09
5.27343744726562e-09
5.27343744726562e-09
5.27343744726562e-09
5.27343744726562e-09
5.27343744726562e-09
5.27343744726562e-09
5.27343744726562e-09
5.27343744726562e-09
5.27343744726562e-09
5.27343744726562e-09
5.27343744726562e-09
5.27343744726562e-09
5.27343744726562e-09
5.27343744726562e-09
5.27343744726562e-09
5.27343744726562e-09
5.27343744726562e-09
5.27343744726562e-09
5.27343744726562e-09
5.27343744726562e-09
5.27343744726562e-09
5.27343744726562e-09
5.27343744726562e-09
5.14438707642357e-09
5.19095243409395e-09
5.19446363491570e-09
5.19283432962273e-09
5.27343744726562e-09
5.27343744726562e-09
5.27343744726562e-09
5.27343744726562e-09
5.27343744726562e-09
5.27343744726562e-09
5.27343744726562e-09
5.27343744726562e-09
5.27343744726562e-09
5.27343744726562e-09
5.27343744726562e-09
5.27343744726562e-09
5.27343744726562e-09
5.27343744726562e-09
5.27343744726562e-09
5.27343744726562e-09
5.27343744726562e-09
5.27343744726562e-09
5.27343744726562e-09
5.27343744726562e-09
5.27343744726562e-09
5.27343744726562e-09
5.27343744726562e-09
5.27343744726562e-09
5.27343744726562e-09
5.27343744726562e-09
5.27343744726562e-09
5.27343744726562e-09
5.27343744726562e-09
5.27343744726562e-09
5.27343744726562e-09
5.27343744726562e-09
5.27343744726562e-09
4.33475391637636e-09
4.38407300061665e-09
4.55785198034659e-09
5.27343744726562e-09
5.27343744726562e-09
5.27343744726562e-09
5.27343744726562e-09
5.27343744726562e-09
5.27343744726562e-09
5.27343744726562e-09
5.27343744726562e-09
5.27343744726562e-09
5.27343744726562e-09
5.27343744726562e-09
5.27343744726562e-09
5.27343744726562e-09
5.27343744726562e-09
5.27343744726562e-09
5.27343744726562e-09
5.27343744726562e-09
5.27343744726562e-09
5.27343744726562e-09
5.27343744726562e-09
5.27343744726562e-09
5.27343744726562e-09
5.15611178498952e-09
5.21096181402603e-09
5.22773057168300e-09
5.21498318620933e-09
5.27343744726562e-09
5.27343744726562e-09
5.27343744726562e-09
5.27343744726562e-09
5.27343744726562e-09
5.27343744726562e-09
5.27343744726562e-09
5.27343744726562e-09
5.27343744726562e-09
5.27343744726562e-09
5.27343744726562e-09
5.27343744726562e-09
5.27343744726562e-09
5.27343744726562e-09
5.27343744726562e-09
5.27343744726562e-09
5.27343744726562e-09
5.27343744726562e-09
5.27343744726562e-09
5.27343744726562e-09
5.27343744726562e-09
5.27343744726562e-09
5.27343744726562e-09
5.27343744726562e-09
5.27343744726562e-09
5.27343744726562e-09
5.27343744726562e-09
5.27343744726562e-09
5.27343744726562e-09
4.79208732727643e-09
4.69886644565878e-09
4.56280078460280e-09
4.60023191269389e-09
4.60246836361361e-09
4.66782678877894e-09
4.75311153670856e-09
4.69479908480772e-09
4.85120404271586e-09
5.27343744726562e-09
5.27343744726562e-09
5.27343744726562e-09
5.27343744726562e-09
5.27343744726562e-09
5.27343744726562e-09
5.27343744726562e-09
5.27343744726562e-09
5.27343744726562e-09
5.27343744726562e-09
5.27343744726562e-09
5.27343744726562e-09
5.27343744726562e-09
5.27343744726562e-09
5.27343744726562e-09
5.27343744726562e-09
5.27343744726562e-09
5.27343744726562e-09
5.27343744726562e-09
5.11149768981955e-09
5.14973722806465e-09
5.20419251595725e-09
5.23175987599962e-09
5.24662586371440e-09
5.27343744726562e-09
5.27343744726562e-09
5.27343744726562e-09
5.27343744726562e-09
5.27343744726562e-09
5.27343744726562e-09
5.27343744726562e-09
5.27343744726562e-09
5.27343744726562e-09
5.27343744726562e-09
5.27343744726562e-09
5.27343744726562e-09
5.27343744726562e-09
5.27343744726562e-09
5.27343744726562e-09
5.27343744726562e-09
5.27343744726562e-09
5.27343744726562e-09
5.27343744726562e-09
5.27343744726562e-09
5.27343744726562e-09
5.27343744726562e-09
5.27343744726562e-09
5.27343744726562e-09
5.27343744726562e-09
5.27343744726562e-09
4.84012859789043e-09
4.81443348956524e-09
4.85916067357444e-09
4.91713848673699e-09
4.88818823861329e-09
4.74161254282189e-09
4.55979275247375e-09
4.75141084156793e-09
4.90600479919443e-09
4.92480506591633e-09
4.99581610776628e-09
5.05682744494856e-09
5.06984963402803e-09
5.03720845553866e-09
4.94698742234946e-09
5.27343744726562e-09
5.27343744726562e-09
5.27343744726562e-09
5.27343744726562e-09
5.27343744726562e-09
5.27343744726562e-09
5.27343744726562e-09
5.27343744726562e-09
5.27343744726562e-09
5.27343744726562e-09
5.27343744726562e-09
5.27343744726562e-09
5.27343744726562e-09
5.27343744726562e-09
5.27343744726562e-09
5.08567589956074e-09
5.11403629910207e-09
5.17226396506605e-09
5.19311417947398e-09
5.27343632021387e-09
5.27343744726040e-09
5.27343744726562e-09
5.27343744726562e-09
5.27343744726562e-09
5.27343744726562e-09
5.27343744726562e-09
5.27343744726562e-09
5.27343744726562e-09
5.27343744726562e-09
5.27343744726562e-09
5.27343744726562e-09
5.27343744726562e-09
5.27343744726562e-09
5.27343744726562e-09
5.27343744726562e-09
5.27343744726562e-09
5.27343744726562e-09
5.27343744726562e-09
5.27343744726562e-09
5.27343744726562e-09
5.27343744726562e-09
5.27343744726562e-09
5.27343744726562e-09
5.27343744726562e-09
5.27343744726562e-09
5.27343744726562e-09
4.91932033326821e-09
4.90471167279710e-09
4.93858481643472e-09
5.03501654168085e-09
5.07688902674154e-09
5.05558032885155e-09
5.02188304780747e-09
4.85084728174149e-09
4.93727581453255e-09
5.03175426572851e-09
5.04777091062944e-09
5.06998113357811e-09
5.10485495437312e-09
5.12355953307252e-09
5.12197795582855e-09
5.02341710841148e-09
4.97206401349111e-09
5.11510505039762e-09
5.10393768424645e-09
5.27343744726562e-09
5.27343744726562e-09
5.27343744726562e-09
5.27343744726562e-09
5.27343744726562e-09
5.27343744726562e-09
5.27343744726562e-09
5.27343744726562e-09
5.27343744726562e-09
5.27343744726562e-09
5.27343744726562e-09
5.08853886192666e-09
5.09616779737076e-09
5.12343555349182e-09
5.18265941225868e-09
5.20952917715783e-09
5.27343744726167e-09
5.27343744725850e-09
5.27343744726562e-09
5.27343744726562e-09
5.27343744726562e-09
5.27343744726562e-09
5.27343744726562e-09
5.27343744726562e-09
5.27343744726562e-09
5.27343744726562e-09
5.27343744726562e-09
5.27343744726562e-09
5.27343744726562e-09
5.27343744726562e-09
5.27343744726562e-09
5.27343744726562e-09
5.27343744726562e-09
5.27343744726562e-09
5.27343744726562e-09
5.27343744726562e-09
5.27343744726562e-09
5.27343744726562e-09
5.27343744726562e-09
5.27343744726562e-09
5.27343744726562e-09
5.27343744726562e-09
4.96332834171039e-09
5.01622622803923e-09
5.03623207606242e-09
5.07641911606355e-09
5.12416100656226e-09
5.14809682829030e-09
5.15554077244016e-09
5.13888663700363e-09
5.11432619178570e-09
5.08014958265345e-09
5.09668422904410e-09
5.09372839630310e-09
5.07598112577819e-09
5.07729726161839e-09
5.09167466541745e-09
5.11380918556056e-09
5.11618107570088e-09
5.11768612860361e-09
5.22843995719172e-09
5.24634569283414e-09
5.27343744726562e-09
5.27343744726562e-09
5.27343744726562e-09
5.27343744726562e-09
5.27343744726562e-09
5.27343744726562e-09
5.27343744726562e-09
5.27343744726562e-09
5.27343744726562e-09
5.27343744726562e-09
5.27343744726562e-09
5.13739262835161e-09
5.14340886736143e-09
5.13256831301424e-09
5.17884600963681e-09
5.21193917025846e-09
5.27343744726339e-09
5.27343699144598e-09
5.27343744726562e-09
5.27343744726562e-09
5.27343744726562e-09
5.27343744726562e-09
5.27343744726562e-09
5.27343744726562e-09
5.27343744726562e-09
5.27343744726562e-09
5.27343744726562e-09
5.27343744726562e-09
5.27343744726562e-09
5.27343744726562e-09
5.27343744726562e-09
5.27343744726562e-09
5.27343744726562e-09
5.27343744726562e-09
5.27343744726562e-09
5.27343744726562e-09
5.27343744726562e-09
5.27343744726562e-09
5.27343744726562e-09
5.27343744726562e-09
5.27343744726562e-09
4.99742856041389e-09
5.01288236831914e-09
5.05621966061662e-09
5.08443689147826e-09
5.13838178419500e-09
5.20334396014300e-09
5.19417675973840e-09
5.15004756908083e-09
5.13093051163217e-09
5.15002223911750e-09
5.12182149948296e-09
5.10887539629738e-09
5.08986357398119e-09
5.03665312628912e-09
5.03173187523602e-09
5.03898945569179e-09
5.05392921451152e-09
5.07642049915667e-09
5.06113787692682e-09
4.91279669332245e-09
4.90974202196693e-09
4.92715821150664e-09
5.27343744726562e-09
5.27343744726562e-09
5.27343744726562e-09
5.27343744726562e-09
5.27343744726562e-09
5.27343744726562e-09
5.06310619455906e-09
5.04363794086765e-09
5.04132067011124e-09
5.06354572874573e-09
5.19085327049770e-09
5.16927719199967e-09
5.12970593009347e-09
5.16328679444023e-09
5.20002206864047e-09
5.24471436637652e-09
5.27343635465857e-09
5.27343744726562e-09
5.27343744726562e-09
5.27343744726562e-09
5.27343744726562e-09
5.27343744726562e-09
5.27343744726562e-09
5.27343744726562e-09
5.27343744726562e-09
5.27343744726562e-09
5.27343744726562e-09
5.27343744726562e-09
5.27343744726562e-09
5.27343744726562e-09
5.27343744726562e-09
5.27343744726562e-09
5.27343744726562e-09
5.27343744726562e-09
5.27343744726562e-09
5.27343744726562e-09
5.27343744726562e-09
5.27343744726562e-09
5.27343744726562e-09
4.99454684227896e-09
5.01528514774344e-09
5.02918255649610e-09
5.07617053090429e-09
5.09169294533834e-09
5.11712565860040e-09
5.14944790364982e-09
5.14555079741316e-09
5.11523654263540e-09
5.11204349727001e-09
5.13564855653592e-09
5.13637340939134e-09
5.12828581125802e-09
5.10596983005153e-09
5.07113462445397e-09
5.04670082187222e-09
5.02377813297572e-09
5.02841001941424e-09
5.04232489937664e-09
5.00455784216213e-09
4.80383740648529e-09
4.84743894864123e-09
4.78961836156063e-09
5.06590223827704e-09
5.27343744726562e-09
5.15522466413501e-09
5.15269785198413e-09
5.27343744726562e-09
5.21602293156132e-09
5.08292892868257e-09
5.05132829738041e-09
5.04216042662043e-09
5.05635821738357e-09
5.20180180056388e-09
5.17086021815253e-09
5.12303942958611e-09
5.15342289302629e-09
5.18794816518532e-09
5.20758753363063e-09
5.25615778432274e-09
5.27343744726562e-09
5.27343744726562e-09
5.27343744726562e-09
5.27343744726562e-09
5.27343744726562e-09
5.27343744726562e-09
5.27343744726562e-09
5.27343744726562e-09
5.27343744726562e-09
5.27343744726562e-09
5.27343744726562e-09
5.27343744726562e-09
5.27343744726562e-09
5.27343744726562e-09
5.27343744726562e-09
5.27343744726562e-09
5.27343744726562e-09
5.27343744726562e-09
5.27343744726562e-09
5.27343744726562e-09
5.27343744726562e-09
4.98403597613543e-09
4.95495934710476e-09
4.94793197277730e-09
5.01023742480400e-09
5.06887611681376e-09
5.07269371065837e-09
5.07724792979992e-09
5.09315035063049e-09
5.09478500233720e-09
5.11457775089312e-09
5.13872302054875e-09
5.15600814389856e-09
5.15804583153258e-09
5.16139931836309e-09
5.15678532491144e-09
5.13907045416873e-09
5.10369072492317e-09
5.02142091530234e-09
4.98682605170701e-09
4.98080793125725e-09
4.88442163522134e-09
4.85953918011711e-09
4.80388033484102e-09
4.77937387601464e-09
4.98812589638966e-09
5.05153213617459e-09
5.15634980343092e-09
5.15645996637884e-09
5.18569307579235e-09
5.14419914446278e-09
5.20148601181780e-09
5.16988194633320e-09
5.02247066238567e-09
5.02880958000927e-09
5.07607593883846e-09
5.16269408840587e-09
5.13762535262044e-09
5.16134047902658e-09
5.18415726480297e-09
5.20954030253200e-09
5.27343744685764e-09
5.27343744726562e-09
5.27343744726562e-09
5.27343744726562e-09
5.27343744726562e-09
5.27343744726562e-09
5.27343744726562e-09
5.27343744726562e-09
5.27343744726562e-09
5.27343744726562e-09
5.27343744726562e-09
5.27343744726562e-09
5.27343744726562e-09
5.27343744726562e-09
5.27343744726562e-09
5.27343744726562e-09
5.27343744726562e-09
5.27343744726562e-09
5.27343744726562e-09
5.27343744726562e-09
5.27343744726562e-09
4.97498757298118e-09
4.87366024325733e-09
4.76589015986710e-09
4.84435930007092e-09
4.99891820715132e-09
5.06285497353562e-09
5.06068654488918e-09
5.03069045682084e-09
5.02403724353032e-09
5.07251870152863e-09
5.12063927810700e-09
5.16203580792974e-09
5.18466377656313e-09
5.18778144628214e-09
5.20957996320678e-09
5.22188739642644e-09
5.20987962676965e-09
5.17956668800617e-09
5.12402618278993e-09
5.06417721093844e-09
5.02840766667929e-09
5.03065028182382e-09
5.05536735318827e-09
4.93704280810941e-09
4.91688035647936e-09
4.97188512266906e-09
5.01935009033558e-09
5.11064688497682e-09
5.12014362816989e-09
5.13149302392024e-09
5.15052501608882e-09
5.15744621854736e-09
5.15337023911606e-09
5.04192088707602e-09
5.02890850889573e-09
5.07026125317509e-09
5.17603745630706e-09
5.14671185769181e-09
5.16692272509131e-09
5.17687900138118e-09
5.21874115282520e-09
5.24632072124106e-09
5.27343744726562e-09
5.27343744726562e-09
5.27343744726562e-09
5.27343744726562e-09
5.27343744726562e-09
5.27343744726562e-09
5.27343744726562e-09
5.27343744726562e-09
5.27343744726562e-09
5.27343744726562e-09
5.27343744726562e-09
5.27343744726562e-09
5.27343744726562e-09
5.27343744726562e-09
5.27343744726562e-09
5.27343744726562e-09
5.27343744726562e-09
5.27343744726562e-09
5.27343744726562e-09
5.27343744726562e-09
4.86321125450240e-09
4.62102569401057e-09
4.59295607735523e-09
4.88996371807431e-09
5.04052994980258e-09
5.06406668351120e-09
5.04948165846134e-09
4.98707467895994e-09
4.91125071690494e-09
4.99973568838851e-09
5.10078931697018e-09
5.14477115277174e-09
5.18000301036959e-09
5.16416339987722e-09
5.18998037573017e-09
5.21839869202447e-09
5.22990310840070e-09
5.22008673836761e-09
5.20342585846861e-09
5.18093440318781e-09
5.15492752804953e-09
5.13451594938318e-09
5.12642893707096e-09
5.13272075512205e-09
5.12744323932177e-09
5.09305475722939e-09
5.03935003225053e-09
5.00584094334205e-09
5.04367836407499e-09
5.07921176129084e-09
5.11708003729639e-09
5.24295815798510e-09
5.14038065308818e-09
5.13740336573571e-09
5.04660852366070e-09
5.05673134275643e-09
5.18491985351251e-09
5.15074190209572e-09
5.16406841963865e-09
5.17956713448271e-09
5.21382616340124e-09
5.27174245177301e-09
5.27343744726562e-09
5.27343744726562e-09
5.27343744726562e-09
5.27343744726562e-09
5.27343744726562e-09
5.27343744726562e-09
5.27343744726562e-09
5.27343744726562e-09
5.27343744726562e-09
5.27343744726562e-09
5.27343744726562e-09
5.27343744726562e-09
5.27343744726562e-09
5.27343744726562e-09
5.27343744726562e-09
5.27343744726562e-09
5.27343744726562e-09
5.27343744726562e-09
4.91469954063708e-09
4.89290514856262e-09
4.65815885247523e-09
4.40165692354675e-09
4.73436633411425e-09
5.01324699178024e-09
5.06768660016462e-09
5.06260282155993e-09
5.04743847136335e-09
4.99605108877547e-09
4.91805420740134e-09
4.90163881624491e-09
4.97953570015014e-09
5.06350923871456e-09
5.10233591330474e-09
5.15109490330350e-09
5.17414573958555e-09
5.21327861051142e-09
5.22261282935727e-09
5.22558424747626e-09
5.22588463073852e-09
5.21410512522645e-09
5.19235231265200e-09
5.17091202037122e-09
5.16838500669330e-09
5.18054152056646e-09
5.17077166519675e-09
5.12260495843617e-09
5.06430816080537e-09
5.01002438439356e-09
5.05319771067997e-09
5.06736605609457e-09
5.10436269903001e-09
5.26766431985859e-09
5.15249538115708e-09
5.13115820895595e-09
5.13885844243699e-09
5.06937703381432e-09
5.18608102044686e-09
5.16097727371767e-09
5.15770426215046e-09
5.19225102644326e-09
5.22341509019698e-09
5.25893382967605e-09
5.27343744726562e-09
5.27343744726562e-09
5.27343744726562e-09
5.27343744726562e-09
5.27343744726562e-09
5.27343744726562e-09
5.27343744726562e-09
5.27343744726562e-09
5.27343744726562e-09
5.27343744726562e-09
5.27343744726562e-09
5.27343744726562e-09
5.27343744726562e-09
5.27343744726562e-09
5.27343744726562e-09
5.27343744726562e-09
5.27343744726562e-09
5.27343744726562e-09
5.27343744726562e-09
4.68995025693698e-09
4.50077774074863e-09
4.75971876957883e-09
4.97400720709217e-09
5.07480860342081e-09
5.06061703136041e-09
5.04430144704091e-09
5.02665164249799e-09
4.99889830015074e-09
4.94905845972845e-09
4.88223232796495e-09
4.87647776123173e-09
4.94493917520232e-09
5.02729996194931e-09
5.09272353753326e-09
5.14295900795099e-09
5.19361357218599e-09
5.20297502313177e-09
5.20704972855422e-09
5.22017479490529e-09
5.22204368860018e-09
5.20245136275724e-09
5.16232700313429e-09
5.14983193590774e-09
5.15940814048534e-09
5.16239687723950e-09
5.15234886906690e-09
5.12456955617434e-09
5.08112363383613e-09
5.10032916261256e-09
5.09112891339277e-09
5.23179316869167e-09
5.16698187714052e-09
5.15090041425284e-09
5.13775696881294e-09
5.11899661868073e-09
5.16365014472866e-09
5.18927567396303e-09
5.16357775675268e-09
5.16798684856100e-09
5.20838343862784e-09
5.24784990833681e-09
5.26846468693364e-09
5.27343744726562e-09
5.27343744726562e-09
5.27343744726562e-09
5.27343744726562e-09
5.27343744726562e-09
5.27343744726562e-09
5.27343744726562e-09
5.27343744726562e-09
5.27343744726562e-09
5.27343744726562e-09
5.27343744726562e-09
5.27343744726562e-09
5.27343744726562e-09
5.27343744726562e-09
5.27343744726562e-09
5.27343744726562e-09
5.27343744726562e-09
5.27343744726562e-09
4.63276959268781e-09
4.48307717131591e-09
4.61914727604731e-09
4.94414911488921e-09
5.08293508239950e-09
5.08027773790429e-09
5.03669841480381e-09
4.93341150569098e-09
4.85333393534714e-09
4.95370814627247e-09
4.95444421507700e-09
4.94240251131015e-09
4.91460220455914e-09
4.93676403351562e-09
4.99254837059569e-09
5.06261990373434e-09
5.13200243437888e-09
5.15830174909192e-09
5.17199102054015e-09
5.18038447753298e-09
5.19503244553248e-09
5.21546626035451e-09
5.21274724048624e-09
5.18746578580171e-09
5.16199120814902e-09
5.14385903888703e-09
5.14409318113107e-09
5.15994892338696e-09
5.17314972802763e-09
5.15967632208460e-09
5.23049983630422e-09
5.10959019800116e-09
5.22138763245446e-09
5.09741304362810e-09
5.13870932839792e-09
5.20070623669883e-09
5.12375963121184e-09
5.15390759534142e-09
5.22263993611730e-09
5.15763647595906e-09
5.18028300776421e-09
5.22210307865884e-09
5.25700371621891e-09
5.27343744726551e-09
5.27343744726562e-09
5.27343744726562e-09
5.27343744726562e-09
5.27343744726562e-09
5.27343744726562e-09
5.27343744726562e-09
5.27343744726562e-09
5.27343744726562e-09
5.27343744726562e-09
5.27343744726562e-09
5.27343744726562e-09
5.27343744726562e-09
5.27343744726562e-09
5.27343744726562e-09
5.27343744726562e-09
5.27343744726562e-09
5.27343744726562e-09
4.67878854767457e-09
4.47226449171384e-09
4.49825491058566e-09
4.77356803450268e-09
5.04442759424600e-09
5.11714740281378e-09
5.07398629643631e-09
5.02082684531120e-09
4.93313186021074e-09
4.86720061208989e-09
4.90422609277225e-09
4.98136547909206e-09
5.01057484865597e-09
5.01400332986596e-09
5.00951422284309e-09
5.01195460578141e-09
5.05252352811043e-09
5.15084015205648e-09
5.13166301720570e-09
5.13692296437859e-09
5.15327231605603e-09
5.17660987548479e-09
5.20141848978218e-09
5.21314621654054e-09
5.20989858389763e-09
5.19277556778240e-09
5.16785524154108e-09
5.14973437851555e-09
5.15677981641260e-09
5.18347867543591e-09
5.19798361268185e-09
5.18172925103053e-09
5.14291168649340e-09
5.12074649706391e-09
5.14639184165053e-09
5.12897319666082e-09
5.19108128521097e-09
5.21449184779975e-09
5.15175045677444e-09
5.21914122949803e-09
5.25593034379611e-09
5.20219984218334e-09
5.21817654190726e-09
5.24046487650691e-09
5.27343682253657e-09
5.27343744726562e-09
5.27343744726562e-09
5.27343744726562e-09
5.27343744726562e-09
5.27343744726562e-09
5.27343744726562e-09
5.27343744726562e-09
5.27343744726562e-09
5.27343744726562e-09
5.27343744726562e-09
5.27343744726562e-09
5.27343744726562e-09
5.27343744726562e-09
5.27343744726562e-09
5.27343744726562e-09
5.27343744726562e-09
4.79621425135855e-09
4.64285092085955e-09
4.44147365497949e-09
4.56140332380794e-09
4.78963692782133e-09
4.98428454948208e-09
5.07098124723367e-09
5.05903696043659e-09