/*--------------------------------*- C++ -*----------------------------------*\
| =========                 |                                                 |
| \\      /  F ield         | OpenFOAM: The Open Source CFD Toolbox           |
|  \\    /   O peration     | Version:  2.4.0                                 |
|   \\  /    A nd           | Web:      www.OpenFOAM.org                      |
|    \\/     M anipulation  |                                                 |
\*---------------------------------------------------------------------------*/
FoamFile
{
    version     2.0;
    format      ascii;
    class       volScalarField;
    object      w;
}
// * * * * * * * * * * * * * * * * * * * * * * * * * * * * * * * * * * * * * //

dimensions      [0 0 0 0 0 0 0];

internalField   nonuniform List<scalar>
6448
(6.10000000000315
6.10000000000315
6.10000000000315
6.10000000000315
6.10000000000315
6.10000000000315
6.10000000000315
6.10000000000315
6.10000000000315
6.10000000000315
6.10000000000315
6.10000000000315
6.10000000000315
6.10000000000315
6.10000000000315
6.10000000000315
6.10000000000315
6.10000000000315
6.10000000000315
6.10000000000315
6.10000000000315
6.10000000000315
6.10000000000315
6.10000000000315
6.10000000000315
6.10000000000315
6.10000000000315
6.10000000000315
6.10000000000315
6.10000000000315
6.10000000000315
6.10000000000315
6.10000000000315
6.10000000000315
6.10000000000315
6.10000000000315
6.10000000000315
6.10000000000315
6.10000000000315
6.10000000000315
6.10000000000315
6.10000000000315
6.10000000000315
6.10000000000315
6.10000000000315
6.10000000000315
6.10000000000315
6.10000000000315
6.10000000000315
6.10000000000315
6.10000000000315
6.10000000000315
6.10000000000315
6.10000000000315
6.10000000000315
6.10000000000315
6.10000000000315
6.10000000000315
6.10000000000315
6.10000000000315
6.10000000000315
6.10000000000315
6.10000000000315
6.10000000000315
6.10000000000315
6.10000000000315
6.10000000000315
6.10000000000315
6.10000000000315
6.10000000000315
6.10000000000315
6.10000000000315
6.10000000000315
6.10000000000315
6.10000000000315
6.10000000000315
6.10000000000315
6.10000000000315
6.10000000000315
6.10000000000315
6.10000000000315
6.10000000000315
6.10000000000315
6.10000000000315
6.10000000000315
6.10000000000315
6.10000000000315
6.10000000000315
6.10000000000315
6.10000000000315
6.10000000000315
6.10000000000315
6.10000000000315
6.10000000000315
6.10000000000315
6.10000000000315
6.10000000000315
6.10000000000315
6.10000000000315
6.10000000000315
6.10000000000315
6.10000000000315
6.10000000000315
6.10000000000315
6.10000000000315
6.10000000000315
6.10000000000315
6.10000000000315
6.10000000000315
6.10000000000315
6.10000000000315
6.10000000000315
6.10000000000315
6.10000000000315
6.10000000000315
6.10000000000315
6.10000000000315
6.10000000000315
6.10000000000315
6.10000000000315
6.10000000000315
6.10000000000315
6.10000000000315
6.10000000000315
6.10000000000315
6.10000000000315
6.10000000000315
6.10000000000315
6.10000000000315
6.10000000000315
6.10000000000315
6.10000000000315
6.10000000000315
6.10000000000315
6.10000000000315
6.10000000000315
6.10000000000315
6.10000000000315
6.10000000000315
6.10000000000315
6.10000000000315
6.10000000000315
6.10000000000315
6.10000000000315
6.10000000000315
6.10000000000315
6.10000000000315
6.10000000000315
6.10000000000315
6.10000000000315
6.10000000000315
6.10000000000315
6.10000000000315
6.10000000000315
6.10000000000315
6.10000000000315
6.10000000000315
6.10000000000315
6.10000000000315
6.10000000000315
6.10000000000315
6.10000000000315
6.10000000000315
6.10000000000315
6.10000000000315
6.10000000000315
6.10000000000315
6.10000000000315
6.10000000000315
6.10000000000315
6.10000000000315
6.10000000000315
6.10000000000315
6.10000000000315
6.10000000000315
6.10000000000315
6.10000000000315
6.10000000000315
6.10000000000315
6.10000000000315
6.10000000000315
6.10000000000315
6.10000000000315
6.10000000000315
6.10000000000315
6.10000000000315
6.10000000000315
6.10000000000315
6.10000000000315
6.10000000000315
6.10000000000315
6.10000000000315
6.10000000000315
6.10000000000315
6.10000000000315
6.10000000000315
6.10000000000315
6.10000000000315
6.10000000000315
6.10000000000315
6.10000000000315
6.10000000000315
6.10000000000315
6.10000000000315
6.10000000000315
6.10000000000315
6.10000000000315
6.10000000000315
6.10000000000315
6.10000000000315
6.10000000000315
6.10000000000315
6.10000000000315
6.10000000000315
6.10000000000315
6.10000000000315
6.10000000000315
6.10000000000315
6.10000000000315
6.10000000000315
6.10000000000315
6.10000000000315
6.10000000000315
6.10000000000315
6.10000000000315
6.10000000000315
6.10000000000315
6.10000000000315
6.10000000000315
6.10000000000315
6.10000000000315
6.10000000000315
6.10000000000315
6.10000000000315
6.10000000000315
6.10000000000315
6.10000000000315
6.10000000000315
6.10000000000315
6.10000000000315
6.10000000000315
6.10000000000315
6.10000000000315
6.10000000000315
6.10000000000315
6.10000000000315
6.10000000000315
6.10000000000315
6.10000000000315
6.10000000000315
6.10000000000315
6.10000000000315
6.10000000000315
6.10000000000315
6.10000000000315
6.10000000000315
6.10000000000315
6.10000000000315
6.10000000000315
6.10000000000315
6.10000000000315
6.10000000000315
6.10000000000315
6.10000000000315
6.10000000000315
6.10000000000315
6.10000000000315
6.10000000000315
6.10000000000315
6.10000000000315
6.10000000000315
6.10000000000315
6.10000000000315
6.10000000000315
6.10000000000315
6.10000000000315
6.10000000000315
6.10000000000315
6.10000000000315
6.10000000000315
6.10000000000315
6.10000000000315
6.10000000000315
6.10000000000315
6.10000000000315
6.10000000000315
6.10000000000315
6.10000000000315
6.10000000000315
6.10000000000315
6.10000000000315
6.10000000000315
6.10000000000315
6.10000000000315
6.10000000000315
6.10000000000315
6.10000000000315
6.10000000000315
6.10000000000315
6.10000000000315
6.10000000000315
6.10000000000315
6.10000000000315
6.10000000000315
6.10000000000315
6.10000000000315
6.10000000000315
6.10000000000315
6.10000000000315
6.10000000000315
6.10000000000315
6.10000000000315
6.10000000000315
6.10000000000315
6.10000000000315
6.10000000000315
6.10000000000315
6.10000000000315
6.10000000000315
6.10000000000315
6.10000000000315
6.10000000000315
6.10000000000315
6.10000000000315
6.10000000000315
6.10000000000315
6.10000000000315
6.10000000000315
6.10000000000315
6.10000000000315
6.10000000000315
6.10000000000315
6.10000000000315
6.10000000000315
6.10000000000315
6.10000000000315
6.10000000000315
6.10000000000315
6.10000000000315
6.10000000000315
6.10000000000315
6.10000000000315
6.10000000000315
6.10000000000315
6.10000000000315
6.10000000000315
6.10000000000315
6.10000000000315
6.10000000000315
6.10000000000315
6.10000000000315
6.10000000000315
6.10000000000315
6.10000000000315
6.10000000000315
6.10000000000315
6.10000000000315
6.10000000000315
6.10000000000315
6.10000000000315
6.10000000000315
6.10000000000315
6.10000000000315
6.10000000000315
6.10000000000315
6.10000000000315
6.10000000000315
6.10000000000315
6.10000000000315
6.10000000000315
6.10000000000315
6.36291435871375
6.10000000000315
6.10000000000315
6.10000000000315
6.10000000000315
6.10000000000315
6.10000000000315
6.10000000000315
6.10000000000315
6.10000000000315
6.10000000000315
6.10000000000315
6.10000000000315
6.10000000000315
6.10000000000315
6.10000000000315
6.10000000000315
6.10000000000315
6.10000000000315
6.10000000000315
6.10000000000315
6.10000000000315
6.10000000000315
6.10000000000315
6.10000000000315
6.10000000000315
6.10000000000315
6.10000000000315
6.10000000000315
6.10000000000315
6.10000000000315
6.10000000000315
6.10000000000315
6.10000000000315
6.10000000000315
6.10000000000315
6.10000000000315
6.10000000000315
6.10000000000315
6.10000000000315
6.10000000000315
6.10000000000315
6.10000000000315
6.10000000000315
6.10000000000315
6.10000000000315
6.10000000000315
6.10000000000315
6.10000000000315
6.10000000000315
6.10000000000315
6.10000000000315
6.10000000000315
6.10000000000315
6.10000000000315
6.10000000000315
6.10000000000315
6.10000000000315
6.10000000000315
6.10000000000315
41.8942353634363
54.8947897272681
6.10000000008094
6.10000000000315
6.10000000000315
6.10000000000315
6.10000000000315
6.10000000000315
6.10000000000315
6.10000000000315
6.10000000000315
6.10000000000315
6.10000000000315
6.10000000000315
6.10000000000315
6.10000000000315
6.10000000000315
6.10000000000315
6.10000000000315
6.10000000000315
6.10000000000315
6.10000000000315
6.10000000000315
6.10000000000315
6.10000000000315
6.10000000000315
6.10000000000315
6.10000000000315
6.10000000000315
6.10000000000315
6.10000000000315
6.10000000000315
6.10000000000315
6.10000000000315
6.10000000000315
6.10000000000315
6.10000000000315
6.10000000000315
6.10000000000315
6.10000000000315
6.10000000000315
6.10000000000315
6.10000000000315
6.10000000000315
6.10000000000315
6.10000000000315
6.10000000000315
6.10000000000315
6.10000000000315
6.10000000000315
6.10000000000315
6.10000000000315
6.10000000000315
6.10000000000315
6.10000000000315
6.10000000000315
6.10000000000315
6.10000000000315
6.10000000000315
6.10000000000315
6.10000000000315
83.3378131819509
55.4680258033661
53.3665403806969
54.3416943226319
6.10000000000315
6.10000000000315
6.10000000000315
6.10000000000315
6.10000000000315
6.10000000000315
6.10000000000315
6.10000000000315
6.10000000000315
6.10000000000315
6.10000000000315
6.10000000000315
6.10000000000315
6.10000000000315
6.10000000000315
6.10000000000315
6.10000000000315
6.10000000000315
6.10000000000315
6.10000000000315
6.10000000000315
6.10000000000315
6.10000000000315
6.10000000000315
6.10000000000315
6.10000000000315
6.10000000000315
6.10000000000315
6.10000000000315
6.10000000000315
6.10000000000315
6.10000000000315
6.10000000000315
89.5910545683587
66.7488627180404
75.8328770673580
6.10000000000315
6.10000000000315
6.10000000000315
6.10000000000315
6.10000000000315
6.10000000000315
6.10000000000315
6.10000000000315
6.10000000000315
6.10000000000315
6.10000000000315
6.10000000000315
6.10000000000315
6.10000000000315
6.10000000000315
6.10000000000315
6.10000000000315
6.10000000000315
6.10000000000315
6.10000000000315
6.10000000000315
6.10000000000315
76.3204691486041
43.4922310885091
33.4559780909283
41.0854034955143
6.10000000000315
6.10000000000315
6.10000000000315
6.10000000000315
6.10000000000315
6.10000000000315
6.10000000000315
6.10000000000315
6.10000000000315
6.10000000000315
6.10000000000315
6.10000000000315
6.10000000000315
6.10000000000315
6.10000000000315
6.10000000000315
6.10000000000315
6.10000000000315
6.10000000000315
6.10000000000315
6.10000000000315
6.10000000000315
6.10000000000315
6.10000000000315
6.10000000000315
6.10000000000315
6.10000000000315
6.10000000000315
6.10000000000315
180.564674209394
187.362846676457
245.783283963688
206.486415891771
125.218626432381
82.8780701213412
87.2665021571037
168.132594772357
107.830342474931
6.10000000000315
6.10000000000315
6.10000000000315
6.10000000000315
6.10000000000315
6.10000000000315
6.10000000000315
6.10000000000315
6.10000000000315
6.10000000000315
6.10000000000315
6.10000000000315
6.10000000000315
6.10000000000315
6.10000000000315
6.10000000000315
6.10000000000315
6.10000000000315
6.10000000000315
103.022408287062
80.1356990752455
47.5437171570710
31.0444030444592
22.1469750526816
6.10000000000315
6.10000000000315
6.10000000000315
6.10000000000315
6.10000000000315
6.10000000000315
6.10000000000315
6.10000000000315
6.10000000000315
6.10000000000315
6.10000000000315
6.10000000000315
6.10000000000315
6.10000000000315
6.10000000000315
6.10000000000315
6.10000000000315
6.10000000000315
6.10000000000315
6.10000000000315
6.10000000000315
6.10000000000315
6.10000000000315
6.10000000000315
6.10000000000315
6.10000000000315
184.087879295950
226.463255296811
204.979986630762
159.115238037982
163.873157442401
231.584410542723
286.321183992158
178.510195779770
89.6266040126712
86.5429111928629
83.9115984379992
70.3160751856443
51.5111344785657
44.9966348069629
51.5460674584020
6.10000000000315
6.10000000000315
6.10000000000315
6.10000000000315
6.10000000000315
6.10000000000315
6.10000000000315
6.10000000000315
6.10000000000315
6.10000000000315
6.10000000000315
6.10000000000315
6.10000000000315
6.10000000000315
6.10000000000315
118.476983109434
101.503027689967
66.6532434049514
54.1742016576453
6.10067455066025
6.10000000312705
6.10000000000315
6.10000000000315
6.10000000000315
6.10000000000315
6.10000000000315
6.10000000000315
6.10000000000315
6.10000000000315
6.10000000000315
6.10000000000315
6.10000000000315
6.10000000000315
6.10000000000315
6.10000000000315
6.10000000000315
6.10000000000315
6.10000000000315
6.10000000000315
6.10000000000315
6.10000000000315
6.10000000000315
6.10000000000315
6.10000000000315
6.10000000000315
6.10000000000315
124.241665789949
162.910775016836
188.957175430807
144.632719898156
118.594285608470
125.545254460702
142.777861659983
197.562417646822
155.960616107960
100.276409333279
71.6379907391813
63.8962703908105
62.5172740643502
58.0761192150498
55.7701412923432
65.7950632549559
76.2131311729070
30.7014051662132
6.10078901974198
6.10000000000315
6.10000000000315
6.10000000000315
6.10000000000315
6.10000000000315
6.10000000000315
6.10000000000315
6.10000000000315
6.10000000000315
6.10000000000315
6.10000000000315
116.763474260734
112.197487454468
95.8774889962917
60.4314743161208
44.3496772009193
6.10000000236701
6.10000000426412
6.10000000000315
6.10000000000315
6.10000000000315
6.10000000000315
6.10000000000315
6.10000000000315
6.10000000000315
6.10000000000315
6.10000000000315
6.10000000000315
6.10000000000315
6.10000000000315
6.10000000000315
6.10000000000315
6.10000000000315
6.10000000000315
6.10000000000315
6.10000000000315
6.10000000000315
6.10000000000315
6.10000000000315
6.10000000000315
6.10000000000315
6.10000000000315
102.304083523310
104.009044180639
125.070473760880
123.975906905584
95.4432987776873
81.1174931645475
76.6622253196576
84.3454135368817
90.3287210675849
100.401071555742
83.6108991093155
74.1505839791753
79.8983031574294
85.2145116012628
89.6883013040734
78.2358677156410
65.5084344433465
49.0022203621845
33.0314044532161
22.3146598564320
6.10000000000315
6.10000000000315
6.10000000000315
6.10000000000315
6.10000000000315
6.10000000000315
6.10000000000315
6.10000000000315
6.10000000000315
6.10000000000315
6.10000000000315
87.5240535621052
83.9232801457531
90.4114498890371
62.7138302471709
42.9072745509952
6.10000000133716
6.10027281217628
6.10000000000315
6.10000000000315
6.10000000000315
6.10000000000315
6.10000000000315
6.10000000000315
6.10000000000315
6.10000000000315
6.10000000000315
6.10000000000315
6.10000000000315
6.10000000000315
6.10000000000315
6.10000000000315
6.10000000000315
6.10000000000315
6.10000000000315
6.10000000000315
6.10000000000315
6.10000000000315
6.10000000000315
6.10000000000315
6.10000000000315
80.4889858941272
99.5553016883509
114.410536406421
119.183660901564
86.9320348507981
48.0515854803298
53.5382377668129
78.6585124014649
73.1845495662944
57.5382122681912
72.2510891630047
83.2640583254717
85.5884476048274
104.429231663545
108.557175583498
111.111051591118
100.241815932234
75.6707585847851
72.2604997417422
96.8857900856234
87.1204537499762
89.9527761106035
6.10000000000315
6.10000000000315
6.10000000000315
6.10000000000315
6.10000000000315
6.10000000000315
53.6095902126758
69.5853106621434
69.8649097953947
63.1221914829757
55.5273761118672
68.4408540767583
92.1246119345786
72.0261611515283
50.0397675646505
23.2910234836750
6.10065393519636
6.10000000000315
6.10000000000315
6.10000000000315
6.10000000000315
6.10000000000315
6.10000000000315
6.10000000000315
6.10000000000315
6.10000000000315
6.10000000000315
6.10000000000315
6.10000000000315
6.10000000000315
6.10000000000315
6.10000000000315
6.10000000000315
6.10000000000315
6.10000000000315
6.10000000000315
6.10000000000315
6.10000000000315
6.10000000000315
39.3657788690004
76.1825703703334
111.725679608040
116.280724547091
111.593725261652
95.5018221718229
80.3088623521569
81.5656026237164
87.7822028029675
77.2903194223344
59.8901324708291
62.1205182405286
73.4404185817454
80.9675136507455
89.1640641638707
100.472541766039
115.926863756664
113.763581897202
99.0850775272849
109.922457127854
126.683804933010
124.463511506625
125.524798973063
71.7894586692629
6.10000000000315
76.8514189969725
78.3637389041689
6.10000000000315
40.4631065061311
52.3549718378531
69.8419346345924
68.1447636528622
55.7458631103510
48.9745819249869
67.4933986184058
96.1145727336459
77.9297952882136
57.2661078948705
45.5117683986526
16.4420344282704
6.10000000000315
6.10000000000315
6.10000000000315
6.10000000000315
6.10000000000315
6.10000000000315
6.10000000000315
6.10000000000315
6.10000000000315
6.10000000000315
6.10000000000315
6.10000000000315
6.10000000000315
6.10000000000315
6.10000000000315
6.10000000000315
6.10000000000315
6.10000000000315
6.10000000000315
6.10000000000315
6.10000000000315
21.6825791132469
70.2412707971230
112.927310803258
124.228635043665
117.490186506790
110.657983483576
100.312249807062
90.0820028787198
95.3595366722557
87.1839356086355
70.9909413414166
57.3893300766108
55.1971900040149
51.1620880195390
49.6361178834326
53.6592493844760
74.9473574245268
126.056197190208
151.714580560210
152.646070154323
150.505065430122
135.972506369934
133.911383113479
137.090604884360
102.450757623744
76.3877398864021
76.1780129604447
76.1120794405679
58.6157992758898
6.10046773423548
49.1635843433099
68.0789031429537
73.7347574581844
55.1849133792897
47.6007660768386
72.3809010693989
87.3847659840722
73.1910485155220
59.5349960322141
44.3430185639382
6.10000024418258
6.10000000000315
6.10000000000315
6.10000000000315
6.10000000000315
6.10000000000315
6.10000000000315
6.10000000000315
6.10000000000315
6.10000000000315
6.10000000000315
6.10000000000315
6.10000000000315
6.10000000000315
6.10000000000315
6.10000000000315
6.10000000000315
6.10000000000315
6.10000000000315
6.10000000000315
6.10000000000315
19.7427986129804
82.2703030489421
135.231269168898
148.946589088129
137.558474453006
119.326312118158
105.911849453839
110.114681611785
111.501637616293
87.6643483654973
73.6638984501502
57.6755231202926
59.2318441663931
57.3658906650693
44.3192812916673
36.9531712869708
44.1399299412188
62.2824977303118
95.5239920238340
131.344142534326
152.752538024124
151.410312593526
136.616922012814
123.380496014672
121.362362221634
121.707344023453
105.743603932008
103.531622674190
97.8477360507181
6.10047687576488
6.10014316457351
6.10000000011563
77.9613091293216
80.9815171911209
58.4686059265258
45.9370844957226
64.3947747960268
81.9464105837749
69.8500237988167
63.8911024640918
38.8362265150326
22.3296055805594
6.10000000000315
6.10000000000315
6.10000000000315
6.10000000000315
6.10000000000315
6.10000000000315
6.10000000000315
6.10000000000315
6.10000000000315
6.10000000000315
6.10000000000315
6.10000000000315
6.10000000000315
6.10000000000315
6.10000000000315
6.10000000000315
6.10000000000315
6.10000000000315
6.10000000000315
6.10000000000315
73.1975102256289
148.619980177626
174.587124427717
148.366839045187
132.949255595240
114.272886700131
101.085354801232
116.842133607099
121.866592020053
97.5560774133775
50.2143681721322
49.2035332873043
62.0213548527434
71.5015048755737
56.0498115186160
39.0411923991009
32.1556952320903
38.0308814077942
48.0025685923341
61.4639078340076
77.0292576293619
89.2457719213646
94.0859218728579
90.3202119098880
93.4788528094615
114.060670111737
128.986958548103
146.383086489790
6.10000000014087
6.55028405648703
6.10000000007674
24.3421300768602
85.7356937543774
87.5176271406871
69.7439260525220
52.7811243491980
59.0785797980126
79.5343925883740
71.5583514066977
62.2822305100680
41.7778921022140
7.11447012006677
6.10000000000315
6.10000000000315
6.10000000000315
6.10000000000315
6.10000000000315
6.10000000000315
6.10000000000315
6.10000000000315
6.10000000000315
6.10000000000315
6.10000000000315
6.10000000000315
6.10000000000315
6.10000000000315
6.10000000000315
6.10000000000315
6.10000000000315
6.10000000000315
19.4520702582388
44.6506272608031
127.752358230166
203.472008917171
166.760081315058
136.596418283619
123.317579039164
110.895435441851
94.8705105855495
102.886731087181
108.562576171550
101.993763082821
82.8752120922753
61.4083857291417
64.7896858465080
79.3231181754326
65.5269843493643
42.1056074550270
36.5189931221048
34.7405725250735
34.5607904280363
41.6109309288376
54.6301858356191
67.4623945223815
68.9748350453327
61.6990516333802
67.5463983626964
96.3746076432167
131.265767855570
163.232421514721
21.1759786010642
48.3245963108835
6.10000000007113
9.55526892507664
78.4849195238947
91.2554099110863
86.6467505853888
64.9593284821219
58.3836108942951
73.4084301752042
75.3673571765063
54.6908065468771
36.0388327594776
14.7805461970902
6.10000000000315
6.10000000000315
6.10000000000315
6.10000000000315
6.10000000000315
6.10000000000315
6.10000000000315
6.10000000000315
6.10000000000315
6.10000000000315
6.10000000000315
6.10000000000315
6.10000000000315
6.10000000000315
6.10000000000315
6.10000000000315
6.10000000000315
6.10000000000315
6.10000000000315
94.9747426340450
166.898884333880
6.10000000006798
132.708074666437
118.024885154991
120.699899123310
109.446668743041
98.3275677176870
91.1880775883953
91.6042010535501
96.3157165497473
95.9879654927641
94.7410134732543
84.7630558163644
74.1636311650563
84.1925250682975
53.8753106064769
48.2723976156488
45.8336495970486
37.9781787742226
36.8596290085692
48.5858130821429
72.6006049218025
80.0790155752780
74.3475705950695
72.5587846383795
78.5726083339027
95.1987781427797
121.201555284608
14.0038347184606
13.7743453500819
31.0244770673998
6.10091128569413
79.4395216298573
87.3059925034408
98.5342315955473
71.8086927202926
56.4715818946657
71.8520175780894
69.2131362856841
45.0354120651997
21.4143732844324
9.07624199771244
6.10000000000315
6.10000000000315
6.10000000000315
6.10000000000315
6.10000000000315
6.10000000000315
6.10000000000315
6.10000000000315
6.10000000000315
6.10000000000315
6.10000000000315
6.10000000000315
6.10000000000315
6.10000000000315
6.10000000000315
6.10000000000315
6.10000000000315
6.10000000000315
68.2191834143409
123.721046733908
145.928692006716
113.256835811127
102.497671016366
113.013688555596
121.028196054033
130.429499377101
120.097692653366
98.6294337609756
77.0671406561920
72.9050123194553
85.0808979982743
90.4894872199329
87.3833485107061
69.8858291110458
90.7501333661664
75.0097558425309
66.8166031703124
61.7930433081221
53.0261020861914
40.7962792540653
42.4236372171084
57.5548163152415
72.8015812550783
83.6538484194647
83.5137121704544
74.0239071413743
66.1231062677729
74.1870614843453
31.7985481891813
15.3512877423394
37.2522845405865
111.452196316114
16.6950658497367
49.6302867988700
28.7173539285498
77.6396965723353
36.5027694812623
6.10000000007078
61.8537738817167
36.8240835217514
15.9357365436949
6.10000000006903
6.10000000000315
6.10000000000315
6.10000000000315
6.10000000000315
6.10000000000315
6.10000000000315
6.10000000000315
6.10000000000315
6.10000000000315
6.10000000000315
6.10000000000315
6.10000000000315
6.10000000000315
6.10000000000315
6.10000000000315
6.10000000000315
6.10000000000315
49.7792868531678
71.1128239705571
103.185882366936
98.9300146730150
80.0941391258844
80.3261476457131
108.793248840807
125.534632839941
124.469190332207
109.896800273270
98.4118368960611
57.6256084551301
46.3719674172333
52.3411363408310
64.7764686576680
76.0164597042537
68.7069285483006
79.4755890989705
90.9532776116401
87.8051516943284
78.0199169656838
64.0521767451822
49.2039968918277
42.1848464430483
44.1285839288064
54.3768638151027
69.2919042764434
80.1374045561338
75.9206463048663
59.9411379008372
51.2598018774868
60.9881842170703
84.2208473883110
97.4869135694984
7.14476279651357
28.1598062284619
55.3909072453974
41.3794739738916
6.10018354326380
38.5967770108365
16.5781596388469
48.7363504186228
39.1741512518294
25.8343815734339
6.10037390598477
6.10000000000315
6.10000000000315
6.10000000000315
6.10000000000315
6.10000000000315
6.10000000000315
6.10000000000315
6.10000000000315
6.10000000000315
6.10000000000315
6.10000000000315
6.10000000000315
6.10000000000315
6.10000000000315
6.10000000000315
6.10000000000315
62.2397493307544
62.4654203110381
78.4064184174285
74.1633354315461
66.5128742885613
66.1990407239887
79.2065601301445
108.770771832021
122.004592169756
111.173285158171
93.3730670550073
73.7409647243350
56.9304540917243
41.0928350685388
39.4934568875899
49.0332305648158
53.4928051721401
65.0412329592955
82.2457687828639
89.2976927648540
96.8147976244668
94.5562905786997
83.0411893091397
66.4123913346154
52.8163258874483
46.1219652236111
45.6617345660963
50.8510744968011
61.5867538033335
68.3243504343628
61.2821308335410
48.9377889437873
40.7219162231145
47.0229267937497
67.5433529241436
23.1316126683717
46.2318127696854
66.5750460724572
54.0952826135470
14.0010168372116
8.89871330503416
31.7319796392337
58.0004857672182
42.5552026408001
26.8360672644822
18.6399907225312
6.10000000000315
6.10000000000315
6.10000000000315
6.10000000000315
6.10000000000315
6.10000000000315
6.10000000000315
6.10000000000315
6.10000000000315
6.10000000000315
6.10000000000315
6.10000000000315
6.10000000000315
6.10000000000315
6.10000000000315
6.10000000000315
68.5867551164178
79.1023366813629
102.404213072744
6.10000112841938
58.0718108035803
62.0498071560392
85.8698261592136
111.758864976422
104.550021877655
83.6182151439945
71.2557378896298
70.3099780520876
63.3586624553533
50.3177833238872
39.7580173203404
38.2384335908269
49.5999435584015
64.9750482962407
70.9188756879421
79.1008607135086
90.8431725345319
100.843932731386
102.072923484670
86.7715284703287
67.9475729554942
56.2891804483718
50.3124005146670
47.1886057035592
50.7516189986402
59.8447780415221
64.9518259411289
58.3162533055192
41.0343458289644
33.6544889683315
49.6312783688836
27.1977269000128
45.0641671912536
69.8764586582692
66.8467164130530
39.5423030507107
21.8861441517912
40.3205077146171
56.6954111049362
38.0376887080817
15.8383481808343
19.8785817635612
6.10000000000315
6.10000000000315
6.10000000000315
6.10000000000315
6.10000000000315
6.10000000000315
6.10000000000315
6.10000000000315
6.10000000000315
6.10000000000315
6.10000000000315
6.10000000000315
6.10000000000315
6.10000000000315
6.10000000000315
81.4130271354179
68.9571645555309
98.9303540732917
128.595418822373
100.536608693334
61.8569672362840
66.8681448945141
99.9274005651770
108.702891891679
87.7933917328970
60.7874184654021
60.3129768522171
71.7370096917343
65.6698812716122
54.3713924672369
44.4195623878064
37.3373563518019
33.6915119576910
46.2548787557875
60.7398851385013
62.1180031520277
72.5238491964529
92.7132042883449
107.337867847155
99.6044175690074
78.3869445130575
65.1901602630796
58.6043250193119
52.2347585676854
50.0852708293580
56.8842771187949
65.7200539661397
62.2220057355443
48.2325213367224
36.9208611799353
44.2403677550131
66.4968647381645
37.1420878119812
55.6029703846623
63.4978411701556
47.1734049295336
29.1790277962920
31.4277431170432
41.2627893803683
25.5051153077563
26.3690473796594
16.1742082298377
6.10000000000315
6.10000000000315
6.10000000000315
6.10000000000315
6.10000000000315
6.10000000000315
6.10000000000315
6.10000000000315
6.10000000000315
6.10000000000315
6.10000000000315
6.10000000000315
6.10000000000315
6.10000000000315
145.850174942580
76.5634009886285
70.7219769997397
106.238706932774
123.522008196815
105.029877723453
84.2803359103918
96.0791413607745
115.939142797530
106.224316130612
86.0413482190362
66.0317913528487
58.3823785267355
68.8726182175800
53.3136218891459
42.9773586772199
41.3383960572790
39.9249317365691
32.7342370961594
28.4561015510810
47.9537154578232
48.9070530391835
55.6975716031880
73.4363542623870
88.9777684338002
92.0068786550671
83.9582805692537
74.8353332519179
65.7606294549001
52.3543612865527
48.4408638796431
50.9273212238811
57.2019492224089
56.6590563599125
49.2649290069546
45.5498243313816
48.0793909770049
59.5219635766427
37.2519706883546
45.2121370234130
57.1088295237490
51.9927684770640
38.4125847450165
29.4483373500916
37.6622445718148
34.3464630432827
30.8170192142692
24.5574474154499
6.10000000000315
6.10000000000315
6.10000000000315
6.10000000000315
6.10000000000315
6.10000000000315
6.10000000000315
6.10000000000315
6.10000000000315
6.10000000000315
6.10000000000315
6.10000000000315
6.10000000000315
6.10000000000315
111.185162728191
71.9564881970394
84.6050088714130
115.223077164388
103.959168033045
90.5105232244375
89.0838781999368
113.148997062015
128.889782647468
102.107490970053
89.3130071106252
80.4176707066450
66.7363326493000
53.0407109721478
37.5101986221355
27.7305644117786
26.0093565229200
28.5068694098966
31.7265657182495
28.8294788571502
39.6761248317761
45.9387642400779
44.9909353292390
55.0065343635701
65.7756335756985
80.8164828328598
86.5388154733465
82.5372231556639
67.9537834861493
47.4690656966255
35.9342913200142
40.5383366804483
44.5701704217204
44.9244659041614
44.2376706621862
46.8033366876053
51.3973267759192
57.3059970239116
44.8627860767037
38.4438637004929
43.6955048312525
52.3563678568684
52.7237964002934
42.7538955333185
34.4905921549701
35.6635763461327
27.0099395965943
34.6468794346341
6.10000000000315
6.10000000000315
6.10000000000315
6.10000000000315
6.10000000000315
6.10000000000315
6.10000000000315
6.10000000000315
6.10000000000315
6.10000000000315
6.10000000000315
6.10000000000315
6.10000000000315
127.380314824952
6.10000316666942
67.8668091297151
99.7577920567641
120.380979106050
100.025005343480
80.9649268964760
78.8303150909663
111.762370643218
118.936854724072
91.7251060306882
96.9192290709629
93.9129420126480
68.6955373200509
42.9869818296598
30.4914167473398
28.3760269548812
25.2377656008170
22.6638896267457
25.6493154904649
31.8534258548938
39.6484322687052
51.2505590825213
46.7640520915889
47.9661017549230
56.7026490872817
69.5342260574453
83.2105613262286