/*--------------------------------*- C++ -*----------------------------------*\
| =========                 |                                                 |
| \\      /  F ield         | OpenFOAM: The Open Source CFD Toolbox           |
|  \\    /   O peration     | Version:  2.4.0                                 |
|   \\  /    A nd           | Web:      www.OpenFOAM.org                      |
|    \\/     M anipulation  |                                                 |
\*---------------------------------------------------------------------------*/
FoamFile
{
    version     2.0;
    format      ascii;
    class       volScalarField;
    object      pvf;
}
// * * * * * * * * * * * * * * * * * * * * * * * * * * * * * * * * * * * * * //

dimensions      [0 0 0 0 0 0 0];

internalField   nonuniform List<scalar>
58032
(
  0
0
0
0
0
0
0
0
0
0
0
0
0
0
0
0
0
0
0
0
0
0
0
0
0
0
0
0
0
0
0
0
0
0
0
0
0
0
0
0
0
0
0
0
0
0
0
0
0
0
0
0
0
0
0
0
0
0
0
0
0
0
0
0
0
0
0
0
0
0
0
0
0
0
0
0
0
0
0
0
0
0
0
0
0
0
0
0
0
0
0
0
0
0
0
0
0
0
0
0
0
0
0
0
0
0
0
0
0
0
0
0
0
0
0
0
0
0
0
0
0
0
0
0
0
0
0
0
0
0
0
0
0
0
0
0
0
0
0
0
0
0
0
0
0
0
0
0
0
0
0
0
0
0
0
0
0
0
0
0
0
0
0
0
0
0
0
0
0
0
0
0
0
0
0
0
0
0
0
0
0
0
0
0
0
0
0
0
0
0
0
0
0
0
0
0
0
0
0
0
0
0
0
0
0
0
0
0
0
0
0
0
0
0
0
0
0
0
0
0
0
0
0
0
0
0
0
0
0
0
0
0
0
0
0
0
0
0
0
0
0
0
0
0
0
0
0
0
0
0
0
0
0
0
0
0
0
0
0
0
0
0
0
0
0
0
0
0
0
0
0
0
0
0
0
0
0
0
0
0
0
0
0
0
0
0
0
0
0
0
0
0
0
0
0
0
0
0
0
0
0
0
0
0
0
0
0
0
0
0
0
0
0
0
0
0
0
0
0
0
0
0
0
0
0
0
0
0
0
0
0
0
0
0
0
0
0
0
0
0
0
0
0
0
0
0
0
0
0
0
0
0
0
0
0
0
0
0
0
0
0
0
0
0
0
0
0
0
0
0
0
0
0
0
0
0
0
0
0
0
0
0
0
0
0
0
0
0
0
0
0
0
0
0
0
0
0
0
0
0
0
0
0
0
0
0
0
0
0
0
0
0
0
0
0
0
0
0
0
0
0
0
0
0
0
0
0
0
0
0
0
0
0
0
0
0
0
0
0
0
0
0
0
0
0
0
0
0
0
0
0
0
0
0
0
0
0
0
0
0
0
0
0
0
0
0
0
0
0
0
0
0
0
0
0
0
0
0
0
0
0
0
0
0
0
0
0
0
0
0
0
0
0
0
0
0
0
0
0
0
0
0
0
0
0
0
0
0
0
0
0
0
0
0
0
0
0
0
0
0
0
0
0
0
0
0
0
0
0
0
0
0
0
0
0
0
0
0
0
0
0
0
0
0
0
0
0
0
0
0
0
0
0
0
0
0
0
0
0
0
0
0
0
0
0
0
0
0
0
0
0
0
0
0
0
0
0
0
0
0
0
0
0
0
0
0
0
0
0
0
0
0
0
0
0
0
0
0
0
0
0
0
0
0
0
0
0
0
0
0
0
0
0
0
0
0
0
0
0
0
0
0
0
0
0
0
0
0
0
0
0
0
0
0
0
0
0
0
0
0
0
0
0
0
0
0
0
0
0
0
0
0
0
0
0
0
0
0
0
0
0
0
0
0
0
0
0
0
0
0
0
0
0
0
0
0
0
0
0
0
0
0
0
0
0
0
0
0
0
0
0
0
0
0
0
0
0
0
0
0
0
0
0
0
0
0
0
0
0
0
0
0
0
0
0
0
0
0
0
0
0
0
0
0
0
0
0
0
0
0
0
0
0
0
0
0
0
0
0
0
0
0
0
0
0
0
0
0
0
0
0
0
0
0
0
0
0
0
0
0
0
0
0
0
0
0
0
0
0
0
0
0
0
0
0
0
0
0
0
0
0
0
0
0
0
0
0
0
0
0
0
0
0
0
0
0
0
0
0
0
0
0
0
0
0
0
0
0
0
0
0
0
0
0
0
0
0
0
0
0
0
0
0
0
0
0
0
0
0
0
0
0
0
0
0
0
0
0
0
0
0
0
0
0.0118131507182896
0.0112235824182571
0.00669151649347811
0.00599591263783049
0.00124869297122349
9.27283424499958e-08
0.00457190920435632
7.72791243773777e-07
2.68511415843703e-06
0
0
0
0
0
0
0
0
0
0
0
0
0
0
0
0
0
0
0
0
0
0
0
0
0
0
0
0
0
0
0
0
0
0
0
0
0
0
0
0
0
0
0
0
0
0
0
0
0
0
0
0
0.0129454577687756
0.0143745920226295
0.0156752291326636
0.0109552707270586
0.00661810373663648
0.00457021805015048
2.56672364588018e-05
0.00210013500594698
2.52577307787450e-13
0.00159511467148168
0.00724325206373740
0
0
0
0
0
0
0
0
0
0
0
0
0
0
0
0
0
0
0
0
0
0
0
0
0
0
0
0
0
0
0
0
0
0
0
0
0
0
0
0
0
0
0
0
0
0.000209912781712671
0
0.0251788279301027
0.0233847307880741
0.0210737544979250
0.0170456036793159
0.0172265474951357
0.0199704022628057
0.0185365397642788
0.0134493148863021
0.0109768279546725
0.00792430637835696
0.00467811752790126
0.00594290371099583
0.000982071464222208
0.00377138822967385
0.00749480144702496
0.00541286269940117
0
0
0
0
0
0
0
0
0
0
0
0
0
0
0
0
0
0
0
0
0
0
0
0
0
0
0
0
0
0
0
0
0
0
0
0
0
0
0
0
0
0
0
0.000118865670409999
1.76310322097567e-11
0.00545144760377462
0.0220064343197815
0.0235738921787914
0.0210837289112622
0.0198338047412306
0.0200933220295670
0.0195500776311487
0.0200314645274483
0.0167364663432641
0.0137104415134596
0.00896111802961123
0.00576259477659297
0.00541117420549818
0.00547754236443261
0.00631858081447882
0.00723593338792517
0.00512846428624788
0.00535719884070429
0.00347326661624132
0
0
0
0
0
0
0
0
0
0
0
0
0
0
0
0
0
0
0
0
0
0
0
0
0
0
0
0
0
0
0
0
0
0
0
0
0
0
0
0
0
0.000177355373106968
3.57553843300884e-05
0.0184048560880745
0.0246456731684938
0.0255124745156174
0.0186294415296961
0.0159266805743490
0.0154336822678219
0.0158140612830395
0.0170826794118297
0.0182313542936290
0.0141128722474716
0.00903704084173209
0.00576459671316033
0.00530999415927149
0.00613596902186494
0.00674307079422127
0.00699946014507012
0.00601240253772308
0.00439279331679418
0.00603912491995089
0
0
0
0
0
0
0
0
0
0
0
0
0
0
0
0
0
0
0
0
0
0
0
0
0
0
0
0
0
0
0
0
0
0
0
0
0
0
0
0
0.0321599049749278
1.14408701676815e-06
4.74021751573073e-08
0.0223550813639552
0.0332282088078846
0.0293576399861424
0.0202363128020873
0.0137843897566983
0.0102370497197764
0.00901001702952077
0.0111180364255485
0.0128358546970357
0.0117069394065081
0.00895016806714900
0.00719563000142763
0.00729362063338517
0.00618878711678482
0.00639159221921969
0.00796414304197953
0.00768785429782699
0.00468074943914065
0.00463125346216398
0.00940042404304615
0
0
0
0
0
0
0
0
0
0
0
0
0
0
0
0
0
0
0
0
0
0
0
0
0
0
0
0
0
0
0
0
0
0
0
0
0
0
0
0.0288646931400020
0.0243664171698025
0.0211141899065672
0.0273040793094529
0.0316962946437680
0.0250147783271914
0.0169723706576294
0.0110151469258353
0.00758318312123618
0.00654701447112881
0.00883790073346438
0.0102960073253670
0.00997684371609168
0.00829289101876422
0.00753980673500960
0.00786589807494864
0.00350239616099900
0.00585172118174927
0.00848310590906599
0.00937777674891561
0.00699081585129426
0.00450008747622128
0.00565527010093262
0
0
0
0
0
0
0
0
0
0
0
0
0
0
0
0
0
0
0
0
0
0
0
0
0
0
0
0
0
0
0
0
0
0
0
0
0
0
0
0.0254483360312389
0.0330896858586864
0.0339470238813263
0.0291751754048856
0.0290332847726597
0.0254137476002106
0.0147036783607893
0.00771450339473592
0.00619653686983990
0.00864847604686076
0.0123635739104215
0.0122255152826475
0.00937226858193410
0.00710348160289289
0.00629403242200048
0.00660574409331139
0.00735287659455867
0.00531764630059137
0.00841919133336037
0.00992587757553830
0.00879597347368074
0.00560814938697022
0.00447589286495583
0
0
0
0
0
0
0
0
0
0
0
0
0
0
0
0
0
0
0
0
0
0
0
0
0
0
0
0
0
0
0
0
0
0
0
0.0403224094430203
0.0196648449150738
0.00426586134974447
3.64258272999326e-08
0.0179358626172347
0.0298287853649190
0.0272196806775196
0.0230293336051062
0.0254637989807758
0.0237567212305480
0.0135619478543367
0.00554902139261966
0.00431700874731888
0.00846601778682815
0.0144264435183489
0.0132911920108084
0.00878447994365694
0.00588387571257711
0.00564417606885749
0.00658186702144239
0.00712077654130608
0.00580416760891730
0.00767776051251313
0.00956638694550020
0.00914756118323881
0.00678849158017438
0.00525596419760830
0.00577736343987514
0
0
0
0
0
0
0
0
0
0
0
0
0
0
0
0
0
0
0
0
0
0
0
0
0
0
0
0
0
0
0
0
0
0.0204858333720073
0.0204508407622809
0.0174047134591972
0.00670773885523361
0.00205534561316710
0.00444131102071836
0.0214045116961148
0.0234582617968713
0.0185332812594532
0.0243651051514336
0.0246366850010527
7.12431305577803e-06
0.00801924276146358
0.00374441933259417
0.00591015032272984
0.0110575024996247
0.0121374460242200
0.00914359376031009
0.00692043621151238
0.00549511138227130
0.00731933741685089
0.00653472751954578
0.00557110605867492
0.00559276859269599
0.00778812539499360
0.00841674287809835
0.00745183251927831
0.00640824803496525
0.00804705949835691
0
0
0
0
0
0
0
0
0
0
0
0
0
0
0
0
0
0
0
0
0
0
0
0
0
0
0
0
0
0
0
0
0
0.0174032317230130
0.0199790785286318
0.0196926738608254
0.0164803926436813
0.0101368192756041
0.0105311861225065
0.0109046702402668
0.000196379621959225
0.0164049883821437
0.0270474385330503
0.0298812670127992
0.0256532638942579
0.0179357559403280
0.00848644191685731
0.00677419469035210
0.00712912752740875
0.00739547132779476
0.00700363289169600
0.00714384446531967
0.00805927233111871
0.00856461657347280
0.00738077172024356
0.00458141569645600
0.00435480045191163
0.00658276254963316
0.00736630686686701
0.00758146101017178
0.00747543346502357
0.00864867508989355
0.0164048657270958
0
0
0
0
0
0
0
0
0
0
0
0
0
0
0
0
0
0
0
0
0
0
0
0
0
0
0
0
0
0
0
9.53629275297848e-05
0.00724368304191842
0.00704709207011678
0.000162419634521767
0.000192750613777146
0.00865596770277411
0.0131712472107584
9.03326837018810e-05
6.19522892318571e-08
0.0171556722047014
2.42272176879634e-10
0.0345402047729932
0.0355404798456000
0.0289704920491078
0.0211756883189336
0.0131295833196750
0.00714021690411797
0.00326553104353081
0.00108604936173562
0.00216069793117121
0.00479789345294515
0.00610325523310946
0.00720228096003580
0.00574959939650283
0.00583617167409908
0.00655336341091992
0.00676212862312008
0.00712241058791856
0.00744012769495936
0.00917036611109428
0.0143689463659782
0
0
0
0
0
0
0
0
0
0
0
0
0
0
0
0
0
0
0
0
0
0
0
0
0
0
0
0
0
0
0.0467842131444030
0.00916316871583947
0.0106956224384920
9.57114403967420e-11
1.11551165118766e-07
0.000226134858473876
0.000859884227434593
0.0136776964217655
0.0128772860912474
0.0122770480911494
7.70076587749687e-05
2.94956402765162e-10
0.000133663922158591
0.0459979474062430
0.0405415985079142
0.0322765195442127
0.00650035899821023
0.0121590986879649
0.00394524416129850
0.000475790133508409
0.000118509204727423
0.00168437841926437
0.00406832601204421
0.00767209749203286
0.00868832894321279
0.00817402487772970
0.00735981674577710
0.00612732082797768
0.00722231651189371
0.00872773970995645
0.0126920291814648
0.0148461316433145
1.89583845461304e-13
0
0
0
0
0
0
0
0
0
0
0
0
0
0
0
0
0
0
0
0
0
0
0
0
0
0
0
0.0408865494551892
0.0450378530882968
0.0464075371026323
0.00665829732974911
0.00483037052775820
0.00388727430370222
1.08025540039830e-07
0.000103923094898919
0.00367690954094931
0.00892201687265070
0.0133840512479524
0.0124638267308936
0.0133570706945390
6.82767005732199e-14
1.46112626544658e-13
0.0507339218026285
0.0536462389620958
0.0380888870736891
0.00342174138169302
0.0139376162772053
0.00853339190655760
0.00423881992527239
0.00315068455443147
0.00233436802039045
0.00453894526278158
0.00904137664988651
0.0123791403417632
0.00998884953845643
0.0102916904373999
0.00866023749158000
0.00620736559813006
0.00788470674374223
0.0150381628064738
0.0160324929429945
0.0150162809444520
1.77628823345802e-12
0
0
0
0
0
0
0
0
0
0
0
0
0
0
0
0
0
0
0
0
0
0
0
0
0
0
0.00219560766572380
0.0503303501620834
0.00613320735406846
0.0108927811030520
0.000758252115814682
0.00219923954372101
0.00510727784714869
0.00900260522638580
0.00877321246758509
2.43757269159043e-11
0.0108946210924067
0.0121393669305133
0.0135577984121124
0.0219124725005997
6.68395573713314e-05
0.00110807167545087
0.00198706813489997
0.00152155636716475
0.00598703514125628
0.00860014887254731
0.0185025811380567
0.0196340375843563
0.0227652716794529
0.0193157508172142
0.0113164103253676
0.00912630855912646
0.0103618055184645
0.0102149843093642
0.0126645526424455
0.0125708382549185
0.00899644652284929
0.0155581779926027
0.0180774757646488
0.0273483888460905
0.00983505217446776
0.0173536357299665
0
0
0
0
0
0
0
0
0
0
0
0
0
0
0
0
0
0
0
0
0
0
0
0
0
0
0.0130781982361356
0.0161701474918884
0.0116190929597255
2.41073523691801e-08
2.40971630904273e-05
0.00555006869637203
0.0135449941534356
0.0150037694448909
0.00847765357053168
1.69408006895699e-09
3.52286264594391e-14
0.0131212059845469
0.0177563362049824
0.0215098180259593
0.000143932399487055
4.33389823613047e-08
0.0104959016579884
0.00167886108204157
0.000295039606666817
0.00670954788595083
0.0183156411520837
0.0376312898140633
0.0472150767425363
0.0424896171614104
0.0138920333175447
0.00797445518282316
0.00610238540114722
0.00982312326909074
0.0127173243838617
0.0168514306365185
0.0173979970502799
0.0162932493968734
0.0226230864577475
0.0192390282561339
0.0155976469671574
0.0111439790933894
0
0
0
0
0
0
0
0
0
0
0
0
0
0
0
0
0
0
0
0
0
0
0
0
0
0
0.00527484318123762
0.00752440017774110
4.15695398465095e-05
7.84690953397911e-05
3.24517819746444e-05
0.0121951476557743
0.0184684559425767
0.0173369132778910
0.0110800731624788
0.00943030987007154
8.88622658422937e-11
1.14400697396702e-09
0.0233299289584128
0.0199076123465827
0.0138552851587780
7.75260394863907e-09
4.16667402030152e-13
0.00160891000594671
0.00291608317525217
0.0142823691655799
0.0141215577284837
0.0299109717741699
0.0370932464299264
0.0340724212108870
0.0336857948038266
0.00898560925726924
0.00269704762997131
0.00651795709595278
0.0123238599068699
0.0208731189468325
0.0207614715553376
0.00588527761085537
0.0170264749627769
0.0178384756265529
0.0113051938825265
0.00966490986938954
0
0
0
0
0
0
0
0
0
0
0
0
0
0
0
0
0
0
0
0
0
0
0
0
3.57786355911933e-09
7.28803319852557e-08
4.08499719752144e-05
0.00220292270805854
0.000829286520392937
6.77330791825022e-05
3.76473531765514e-07
0.0109359609981134
0.0155872036043751
0.0168907713144987
0.0150909896871862
0.0130411739434503
0.00230324728682021
5.51273527837305e-05
4.38994061028273e-11
0.0290199865976421
0.0208414931795300
0.0112574798181812
0.000165191769278739
0.0126855004829540
0.00565512161877286
0.00909280986176862
0.0117860475147547
0.0126786341650204
0.0609163250190323
0.0279300338952259
0.0300670463788855
0.0164513886661186
0.00215879088320937
0.00370154198292504
0.0140342017310903
0.0196494811535805
0.0179276854911172
0.00592799381614421
0.0174815334310534
0.00869635631792017
0.0198461650443314
1.22680940800892e-13
0
0
0
0
0
0
0
0
0
0
0
0
0
0
0
0
0
0
0
0
0
0
0
0
0
5.31455519147900e-05
0.000181439540492567
5.57701627410606e-05
0.00259863354345625
6.14471317582094e-07
8.61860382380045e-05
5.33708891526768e-08
0.0133801814037932
0.0189751048275782
0.0204336107219242
0.0185021663802118
0.00583666381967176
0.0135971369732757
5.65650094224986e-07
6.05651730930046e-14
0.0332501531583966
1.88796841249913e-10
9.90974107123672e-11
0.00682553895063998
0.00905541677693251
0.00865944800882230
0.0211574471147317
0.0324047519275955
0.0425081094060354
0.0438145558037029
0.0266023892777512
0.0167647655378948
0.00666295896745118
0.00215258075990218
0.0115490580447934
0.0181401323962250
0.0189192956351513
0.00725862319477282
0.0192178640509773
0.00939304507874810
0.0399314057291154
0.0385983974530277
0
0
0
0
0
0
0
0
0
0
0
0
0
0
0
0
0
0
0
0
0
0
0
0
0
0.000129689248733855
0.000193095181638076
0.000126372522587118
0.00157429290422050
3.07831143279022e-12
2.91631389727110e-11
1.62168979097482e-06
0.0146652499715303
0.0321840481244609
0.0296637175704788
0.0254476795227105
2.55767314201168e-07
0.0106034478869312
0.0122556410366950
0.000122485053314912
2.22759677539012e-14
2.22079766549532e-14
2.22669786478629e-14
1.60038128347944e-08
0.00879385572231354
0.00694399164041558
0.0227367256330491
0.0289968643145541
0.0341162318725008
0.0317814346121081
0.0197633367505699
0.0147103168855471
0.00942075985302733
0.00515052356766885
0.00616015039749502
0.0122702421911150
0.0161949369476955
0.0147219713109756
0.0109558072204454
3.30512236031795e-06
0.0496280222826205
0.0520000000000000
0
0
0
0
0
0
0
0
0
0
0
0
0
0
0
0
0
0
0
0
0
0
0
0
0.00587555825760745
0.00250568852501775
3.20012884979376e-07
3.33879288791014e-07
0.00161645583408532
2.33179711141339e-10
7.61844289280684e-10
0.00230462225526083
0.0190345982034531
0.0191682770003059
0.0188428196694756
0.00823349878963585
0.0202368066478229
5.67383287452161e-08
0.0154476418747753
0.00608207084667249
8.30537972578454e-11
1.18729150257053e-10
1.46796569437681e-10
4.20879414673751e-05
0.00493558483477794
0.00932595152836194
0.00337970714125619
0.0332660111379933
0.0347086743999358
0.0256133770224766
0.0169370386915088
0.0154155861523905
0.0138535347271124
0.00938286146023184
0.00632498273295730
0.00483329877598298
0.00782464647431511
0.0131402780513606
0.0130653485685048
0.0448275995438326
0.0439213067466985
0.0330966365614693
0
0
0
0
0
0
0
0
0
0
0
0
0
0
0
0
0
0
0
0
0
0
0
1.13037867582864e-10
0.0118179628438726
0.0128676442510644
0.00841524712862234
0.00600730313903200
9.42399819167708e-12
4.97777664627387e-11
1.04698153919227e-10
0.000318197874288277
0.0131042001919568
0.0206419621884597
0.0150044511455636
0.0163213782603167
0.0136727797816780
0.0193601051549022
0.00242802588127802
0.00516593095412497
0.000197489605629727
5.05307589049063e-05
5.22203842178606e-11
5.51138387314792e-08
0.00799696158683296
0.0143347121480140
0.00900135744344068
0.0379608401116414
0.0351640590727859
0.0240762332277745
0.0171187417637286
0.0185989234880922
0.0183123247438998
0.0138874663996238
0.00863719666777756
0.00559038113095216
0.00374669938385048
0.00822418033532639
0.0175897785469335
0.00889560267430972
0.0463102286506703
0.0482683746664438
0
0
0
0
0
0
0
0
0
0
0
0
0
0
0
0
0
0
0
0
0
0
6.64306096624791e-11
0.00806580025007824
0.0220210668800279
0.0282862820327313
0.0187385386028814
4.14668969122542e-09
1.02623338827148e-12
1.61479417528944e-10
1.65099689961229e-13
0.0124079160919865
0.0148887386091783
0.0171194355330368
0.0174897411469706
0.0182966815352570
0.0152952558300543
0.0131756030568259
0.0137802695603331
7.11571837973377e-07
0.000100757348553395
5.19434747184267e-05
0.000163445818701880
0.00781252602579897
0.0123262707768312
0.0178089150077243
3.19261479280039e-14
0.0298894027620814
0.0262721928665666
0.0215939109007605
0.0222945600021517
0.0225371377005728
0.0198681463479480
0.0153391935963828
0.00920065082192148
0.0132802051664974
0.0107536933747950
0.00477989042599343
0.0188682334768073
0.0191468264160774
0.0462943222351120
0.0640000000000000
0
0
0
0
0
0
0
0
0
0
0
0
0
0
0
0
0
0
0
0
0
0
0.000139308323409518
0.0250271919207094
0.0318294020621848
0.0322974508792662
7.60880708052235e-08
1.73037543165772e-09
4.21638771523308e-11
2.03918474177300e-08
0.000136387572850346
0.00935271636244080
0.0120654838599038
0.0128146461688073
0.0199625237045425
0.0252550422052978
0.0217399249529970
0.0159945329079808
0.0128926719446583
2.75169220315650e-09
8.26672995011179e-05
0.00335496855893581
0.000802966451739855
0.00943847466474286
0.0128353110714462
0.0124571554574769
0.0126643441411819
0.0157619205679610
0.0139455402776878
0.0175537368623123
0.0262871240014989
0.0274474116819316
0.0219661993620258
0.0154979533448689
0.00763736039410585
0.0178034860830333
0.0179932766392540
0.0109605644917197
0.0170755372885601
0.0263746452161151
0.0320403032681107
0.0328588243959364
0
0
0
0
0
0
0
0
0
0
0
0
0
0
0
0
0
0
0
0
0
0
0.0187769383006747
0.0331200852454071
0.0373541871976176
1.75964628404075e-07
1.73327873433218e-06
2.07000268842452e-09
1.97010405426042e-10
4.55501295806367e-07
0.00283831040463114
0.0111624095154148
0.0123769467573986
0.0120691365468012
0.0211044860516691
0.0295320509527341
0.0297349228249102
0.0200636369140636
0.0137732149225509
9.94070142525739e-11
9.69534072156423e-05
0.00503459892483743
0.00303787215140235
0.00822196232557594
0.00994290192902595
0.00418516875067400
0.00442641499818870
0.00820105779574259
0.0121297456677697
0.0182897686216235
0.0284887280538256
0.0285903398184795
0.0217417349607472
0.0141107623920770
0.00576066384717753
0.0196687218888773
0.0212585946779501
0.0143251059735090
0.0164900062945948
0.0233807447747991
0.0329382596220489
0.0280730184631141
0
0
0
0
0
0
0
0
0
0
0
0
0
0
0
0
0
0
0
0
0
0.0270939638476776
0.0336314168053544
0.0383232885101139
9.91590299384068e-12
3.87214631496544e-10
3.13488154891934e-06
1.02016842724688e-10
2.03794132078920e-10
4.84707688467537e-08
0.0120305428436661
0.0135284343137140
0.0150517535158388
0.0154689436086734
0.0185783122662018
0.0246579240704488
0.0269973178904813
0.0213994936385805
0.0158050295168209
4.04663196799242e-11
3.33189209211583e-05
0.000110999652495447
0.00988231554930175
0.00742795167213182
0.00649564639095515
0.00468615656756439
0.00417335766364624
0.00672832288212376
0.0119831846068423
0.0180087420736805
0.0248625482031950
0.0242884273457259
0.0185836889042088
0.0120479626040905
0.00373899137154981
0.0190379447209053
0.0236382725795753
0.0165264121226797
0.0152850385183544
0.0152125607732059
0.0271542647422587
0.0444116569098297
0
0
0
0
0
0
0
0
0
0
0
0
0
0
0
0
0
0
0
0
0
1.07982076931846e-09
2.25058844366670e-14
3.04771121974628e-14
5.81984472909907e-05
8.48684360131359e-10
0.000107916156305251
0.00191937633431049
0.000143393191083299
0.00414544643512121
0.0149907196063889
0.0187770701106177
0.00958554083808299
0.0200545225385240
0.0195092102026819
0.0184395785435979
0.0188503430181078
0.0168783312547188
0.0130139229274809
9.78045458573113e-05
7.82204177931068e-05
0.000126464941096161
8.66500747470479e-05
1.39102140777112e-11
4.38360042565164e-08
0.00675486094107336
0.00357485613789061
0.00627434890576285
0.00925676928246368
0.0133879272654913
0.0160827421597049
0.0177234056519206
0.0163019907906793
0.0129168837687216
2.83394111554586e-10
0.0188793998677474
0.0236075754436210
0.0165210726764368
0.0144590635479752
0.0111718054618145
0.0200117004555438
0.000436236648287547
0
0
0
0
0
0
0
0
0
0
0
0
0
0
0
0
0
0
0
0
0
1.09863756538169e-10
8.68860090627673e-14
8.34862547870912e-12
8.89384822919897e-05
7.11916196092998e-05
2.24975735387614e-14
8.73489443500531e-05
9.87170340051491e-05
0.0108486747712316
0.0207890209218844
0.0210508478876553
0.0126366112828834
0.0228558891233867
0.0211208405070777
0.0175964875196341
0.0158043811218018
0.0147985184108781
0.0138932835638369
0.000108567735048995
0.0223123845235264
0.0184247502281577
2.29833988614731e-09
0.000121884004637589
5.80644449703479e-10
0.00252669324258021
0.00689466077448978
0.00381955958287324
0.00458917111285796
0.00726243442896685
0.00830257822334551
0.0105783285214663
0.0135537631739670
0.0142838690741031
0.0177434260196848
0.0225563880498191
0.00862728708031755
0.00626869837608292
0.00715605156586504
0.00819449500422283
0.0141160511137228
0.0190752401458934
0
0
0
0
0
0
0
0
0
0
0
0
0
0
0
0
0
0
0
0
1.11486547922840e-13
2.10740977190158e-10
0.0330262330027458
0.000100857300130883
0.000115122553051250
0.000159179409413589
0.000220593546558963
4.05544384118302e-05
0.00403238243408025
0.0109705845785047
0.0221160587063373
0.0197324622057942
0.0142756115302919
0.0108416171337575
0.0281301192130308
0.0250026015861441
0.0167045119926990
0.0133641786624244
0.0425409269315722
0.0101779384345931
0.0186239308340366
0.0178050402352043
0.0146006924596105
0.000117908731470763
5.69526542096651e-05
0.00757791470569808
0.0140114794933727
0.00544970145206573
0.00303440214904858
0.00387882221343716
0.00430947216842637
0.00589304136955716
0.0104165243343408
0.0149634806811608
0.0230948904386861
0.0289417979233135
0.0267692848996782
0.00745917528368725
0.0103701733295142
0.0116607047605859
0.0107869509107648
0.00861082171435116
0
0
0
0
0
0
0
0
0
0
0
0
0
0
0
0
0
0
0
0.0268563780174331
0.0413380901950663
0.0249469071261261
0.0244391601829130
6.36135579692878e-11
8.82063890791430e-08
0.000231105006948966
0.000156525389081563
6.03433619986334e-08
0.00608371130752014
0.0107952972411619
0.0195660165549554
0.0140482355884369
0.00552274342265066
0.000636670572888968
4.31234301262186e-05
0.0315538103309818
0.0199824947992668
0.0116737854454552
0.0144445998718278
0.0147104724059836
0.000197733835745725
0.0161906478281574
0.0197480644502324
0.0218267843736768
0.000154448750937359
2.30795313191263e-06
0.00834148549804406
0.00227302684839424
0.00470672286518880
0.00256679614825291
0.00326712321452669
0.00350019386967809
0.00584582050566861
0.0129084863842210
0.0183964029864125
0.0239087356957577
0.0253737093919821
0.0136494421186328
0.00586127594785308
0.0213204160494550
0.0104804635598415
0.0160360335195632
0
0
0
0
0
0
0
0
0
0
0
0
0
0
0
0
0
0
0
0.0368563780174331
0.0405997683481167
0.0271852942161214
0.0259977679953052
0.0302654123899843
9.51657266175742e-08
0.000338917106901497
3.25314759941861e-05
0.00126225138435964
0.0110572719305769
0.0147306809778919
0.0168642250388015
0.0136968873742339
0.000973069583737505
0.000197380455788243
8.64568639951475e-08
7.08860001882275e-05
0.0268517305060612
0.0223625145553455
0.0212720623524356
0.0174701340970292
8.33690132397570e-08
7.41941503258159e-11
0.0168129173055534
0.0234361936313142
5.43828785400893e-05
2.28797976014651e-11
0.0153210554329394
0.000808786683873609
0.00233226275814204
0.00468056840869631
0.00312331043845360
0.00290799886429922
0.00432328428272763
0.00922736244887321
0.0105889292659987
0.0136068179588296
0.0118242689690570
4.14004885828467e-13
2.52669977489217e-14
0.0246873812316427
0.0106349740935649
0.00838053179777973
0
0
0
0
0
0
0
0
0
0
0
0
0
0
0
0
0
0
0
0.0412104400105694
0.0354095248263145
0.0295510478251200
0.0340231271385556
0.0372817400133113
6.62358048957343e-05
9.98553351990849e-07
0.00346147041295637
0.0103969235092920
0.0129211805101826
0.0152824595920516
0.0164668357251745
0.0143413695826372
0.00312171806226801
8.53117137307111e-08
1.10730747033844e-07
5.55482962413100e-05
2.19453600133390e-10
0.0388491468395875
0.0308266367661522
0.0176084931028464
2.56598253167092e-14
3.03140561511062e-12
0.0119812044308416
0.0187375148209625
0.0233165317126449
0.0153026457762492
0.0138008472609710
0.0109905479377052
0.00352977296003637
0.00535106131363673
0.00418581402048091
0.00381808290289643
0.00552928906049480
0.00797127741163460
0.00798388925005797
0.0118543605980437
0.00222224136593045
0.00265269349601957
0.00955732421891234
0.0178241654023986
0.0246982988757545
0.0361803398777066
0
0
0
0
0
0
0
0
0
0
0
0
0
0
0
0
0
0
0.0328563780174331
0.0373975604228137
0.0213897010748461
0.0250416456275407
0.0358553597979231
0.000103598523661324
4.53766826617581e-05
0.00960865585286497
0.00871154135353254
0.0129745824139358
0.0139661423472012
0.0141667825791357
0.0149999542635928
0.0127325654022761
0.00849222594460594
0.00375059474370766
0.000812840832879355
2.32251630381142e-05
1.91644420738773e-10
0.0368088785952479
0.0312938589169808
0.0165363950196888
0.0105132914503776
0.0106354428792234
0.0106996588287963
0.0162494015514211
0.0174908022605148
0.0141540163457082
0.0113718624778858
0.0108428392789639
0.00907370661846222
0.00599373091231270
0.00439296320737565
0.00419825663556368
0.00560774976286699
0.00758861171634701
0.0102008211533235
0.0110863859397021
0.00757771065681811
0.0128822885170774
0.0248966250290803
0.0393701953509751
0.0380831511167419
0.0186670710175867
0.000658397150375693
0.0314721872641621
0.0240549228051031
0.0334609445052183
0.000173766466018027
2.51139456868645e-14
2.22109071982944e-14
0
0
0
0
0
0
0
0
0
0
0
0.0348563780174331
0.0219621630545623
0.00926039665581106
0.0186844944580936
0.0324226547891128
7.83737320256846e-11
0.00710470955775400
0.00935361734949230
0.0127299662997174
0.0232345455218386
0.0186139229794830
0.0138399298183338
0.0111116247970388
0.0100956764450210
0.0115561234526900
0.00961732842582591
0.000819387046730451
2.58980722395923e-11
2.22089758140051e-14
0.0287610818469702
0.0212477065103698
0.0147732707443347
0.00887198974439379
0.0114148288568568
0.0133332253147767
0.0190888413577021
0.0107906068330511
0.00929888059914211
0.00987027828891482
0.0111325484704881
0.0113149471718373
4.37347080118233e-13
0.00478875543558859
0.00479689522387233
0.00513110714152412
0.00735759234071327
0.0129618895596424
0.0157465611064140
0.0121285822678277
0.0194442308941112
0.0321263525784414
0.0470140718608871
0.0365039664592006
0.00870944342799291
1.32939435081999e-09
2.54262557402006e-14
2.96691404073994e-14
0.000156654989468210
9.93634136240570e-08
1.01703862602582e-12
0.00438859453589456
0
0
0
0
0
0
0
0
0
0
0
0.0308563780174331
0.0133254136715099
0.00699572598608038
0.0210951800272575
0.0349654688201471
0.0386005089832315
0.0353940193558342
0.00891297719665319
0.0197988768617232
0.0298762983895906
0.0195724986545586
0.0115269398164161
0.00371076334353593
0.00733729959523900
0.0150962158894403
0.000152009888930655
0.000172291353690770
4.85561147828328e-07
2.27683481822074e-14
0.0272242342550562
0.0181538336756263
0.00622021795481255
0.00603848337270809
0.0131560887725515
0.0183284824680750
0.0200467689562099
0.00971913753254007
0.00729710947336922
0.00938473003889817
0.0139045741354007
0.0139787658175038
0.00339299271911376
0.00621937664008142
0.00724425127384476
0.00764194366813309
0.0104046816733511
0.0168013090018403
0.0184790493667215
0.0184238473253963
0.0203598367422987
0.0308146991515256
0.0411375843280950
0.0302118423569843
2.22044604925031e-14
2.22050702743091e-14
2.30211077742952e-14
0.0158601988730499
8.23178399904560e-08
0.0130788037766624
0.0104672160924965
0.0188356736227162
0
0
0
0
0
0
0
0
0
0
0
0.0368563780174331
3.92366462488167e-12
0.0145178324674736
9.67023960602002e-11
0.0372766006574912
0.0464683042496208
0.0122526961006226
0.0132592949912463
0.0240796534534966
0.0291954241748852
0.0215894734587671
0.0155613299502884
0.0147646926449040
0.0163270209318753
1.43945097344272e-10
0.000118167622303269
5.09094408530942e-05
0.0134204358190323
0.0175964114137321
0.0240082707140281
0.0196533576195424
0.0130640380273565
0.0128026420183523
0.0140341982254508
0.0189818698476758
0.0176880873801097
0.00830080792800854
0.00594152582073997
0.00911784907837558
0.0166010904537477
0.00675293259656327
2.22050221913889e-14
0.00899833048715981
0.0111132328364222
0.0124395085029130
0.0143494263510619
0.0195275978122757
0.0104944887240640
0.0193832555039188
0.0176719173844619
0.0210219134144014
0.0242511736551306
0.0119649085392267
2.58645148851792e-14
2.22062009262067e-14
0.0275765397580230
0.00463271573018135
0.000515979540376737
0.00766924624591625
0.0105661248532127
0.0197691332388820
0
0
0
0
0
0
0
0
0
0
0
0.0326142168699290
0.0203759416020751
0.0230894031764352
2.23311115204703e-14
1.01927664215518e-12
0.00590887532995319
0.0167062307099718
0.0196077237181425
0.0236371706234573
0.0283832909891729
0.0227966576037683
0.0205567786851228
0.0165765763781433
0.00304657482352593
1.19520904134439e-10
2.22063478639645e-14
0.0178643700177142
0.0215502540755624
0.0296576049117518
0.0293962928099177
0.0226893287138310
0.0140892505612492
0.00983473244324640
0.0136717729960930
0.0185901555250322
0.0172518123998585
0.00862016246056790
0.00708963648124203
0.0104930832375187
0.0179016247723626
0.00500149082541300
0.0119093240536447
0.0181615442235565
0.0192054299855140
0.0175057196534134
0.0152708633551732
0.0196535386459871
0.0105316187089773
0.0151840684660327
0.0147416219448032
0.0170995982083473
0.0190591672621294
0.000509870914137615
5.13184023167225e-13
5.44583919922410e-05
0.0123846039453521
0.000248795223002583
5.15757577418772e-05
0.00323265032501451